 VARIABLES = "X","Y","sidep"
 ZONE F=FEPOINT,ET=TRIANGLE,N =       10201 ,E =       20000
  0.000000000000000E+000  0.000000000000000E+000           1
  3.193803087690794E-003  0.000000000000000E+000           1
  6.517947752008202E-003  0.000000000000000E+000           1
  9.977753333603956E-003  0.000000000000000E+000           1
  1.357875625953969E-002  0.000000000000000E+000           1
  1.732671890275206E-002  0.000000000000000E+000           1
  2.122763880307799E-002  0.000000000000000E+000           1
  2.528775826459873E-002  0.000000000000000E+000           1
  2.951357434465773E-002  0.000000000000000E+000           1
  3.391184925053858E-002  0.000000000000000E+000           1
  3.848962116043930E-002  0.000000000000000E+000           1
  4.325421548605934E-002  0.000000000000000E+000           1
  4.821325659482056E-002  0.000000000000000E+000           1
  5.337468001048218E-002  0.000000000000000E+000           1
  5.874674511167172E-002  0.000000000000000E+000           1
  6.433804834865270E-002  0.000000000000000E+000           1
  7.015753699947930E-002  0.000000000000000E+000           1
  7.621452348754992E-002  0.000000000000000E+000           1
  8.251870028347152E-002  0.000000000000000E+000           1
  8.908015541508035E-002  0.000000000000000E+000           1
  9.590938861043885E-002  0.000000000000000E+000           1
  0.103017328099640       0.000000000000000E+000           1
  0.110415348102309       0.000000000000000E+000           1
  0.118115287028777       0.000000000000000E+000           1
  0.126129466424068       0.000000000000000E+000           1
  0.134470710684998       0.000000000000000E+000           1
  0.143152367581944       0.000000000000000E+000           1
  0.152188329618127       0.000000000000000E+000           1
  0.161593056260580       0.000000000000000E+000           1
  0.171381597078379       0.000000000000000E+000           1
  0.181569615825166       0.000000000000000E+000           1
  0.192173415504497       0.000000000000000E+000           1
  0.203209964458122       0.000000000000000E+000           1
  0.214696923518956       0.000000000000000E+000           1
  0.226652674272179       0.000000000000000E+000           1
  0.239096348469693       0.000000000000000E+000           1
  0.252047858645005       0.000000000000000E+000           1
  0.265527929977532       0.000000000000000E+000           1
  0.279558133457308       0.000000000000000E+000           1
  0.294160920403170       0.000000000000000E+000           1
  0.309359658389660       0.000000000000000E+000           1
  0.325178668640125       0.000000000000000E+000           1
  0.341643264945870       0.000000000000000E+000           1
  0.358779794173617       0.000000000000000E+000           1
  0.376615678426119       0.000000000000000E+000           1
  0.395179458923371       0.000000000000000E+000           1
  0.414500841674653       0.000000000000000E+000           1
  0.434610745014483       0.000000000000000E+000           1
  0.455541349078546       0.000000000000000E+000           1
  0.477326147298777       0.000000000000000E+000           1
  0.500000000000001       0.000000000000000E+000           1
  0.522673852701224       0.000000000000000E+000           1
  0.544458650921455       0.000000000000000E+000           1
  0.565389254985518       0.000000000000000E+000           1
  0.585499158325348       0.000000000000000E+000           1
  0.604820541076630       0.000000000000000E+000           1
  0.623384321573882       0.000000000000000E+000           1
  0.641220205826384       0.000000000000000E+000           1
  0.658356735054131       0.000000000000000E+000           1
  0.674821331359875       0.000000000000000E+000           1
  0.690640341610341       0.000000000000000E+000           1
  0.705839079596830       0.000000000000000E+000           1
  0.720441866542693       0.000000000000000E+000           1
  0.734472070022469       0.000000000000000E+000           1
  0.747952141354996       0.000000000000000E+000           1
  0.760903651530308       0.000000000000000E+000           1
  0.773347325727821       0.000000000000000E+000           1
  0.785303076481045       0.000000000000000E+000           1
  0.796790035541879       0.000000000000000E+000           1
  0.807826584495504       0.000000000000000E+000           1
  0.818430384174834       0.000000000000000E+000           1
  0.828618402921621       0.000000000000000E+000           1
  0.838406943739421       0.000000000000000E+000           1
  0.847811670381874       0.000000000000000E+000           1
  0.856847632418057       0.000000000000000E+000           1
  0.865529289315003       0.000000000000000E+000           1
  0.873870533575933       0.000000000000000E+000           1
  0.881884712971224       0.000000000000000E+000           1
  0.889584651897692       0.000000000000000E+000           1
  0.896982671900360       0.000000000000000E+000           1
  0.904090611389561       0.000000000000000E+000           1
  0.910919844584920       0.000000000000000E+000           1
  0.917481299716529       0.000000000000000E+000           1
  0.923785476512450       0.000000000000000E+000           1
  0.929842463000521       0.000000000000000E+000           1
  0.935661951651348       0.000000000000000E+000           1
  0.941253254888329       0.000000000000000E+000           1
  0.946625319989518       0.000000000000000E+000           1
  0.951786743405180       0.000000000000000E+000           1
  0.956745784513941       0.000000000000000E+000           1
  0.961510378839561       0.000000000000000E+000           1
  0.966088150749462       0.000000000000000E+000           1
  0.970486425655342       0.000000000000000E+000           1
  0.974712241735401       0.000000000000000E+000           1
  0.978772361196922       0.000000000000000E+000           1
  0.982673281097248       0.000000000000000E+000           1
  0.986421243740460       0.000000000000000E+000           1
  0.990022246666396       0.000000000000000E+000           1
  0.993482052247992       0.000000000000000E+000           1
  0.996806196912309       0.000000000000000E+000           1
   1.00000000000000       0.000000000000000E+000           1
  0.000000000000000E+000  3.193803087690794E-003           4
  3.193803087690794E-003  3.193803087690794E-003           0
  6.517947752008202E-003  3.193803087690794E-003           0
  9.977753333603956E-003  3.193803087690794E-003           0
  1.357875625953969E-002  3.193803087690794E-003           0
  1.732671890275206E-002  3.193803087690794E-003           0
  2.122763880307799E-002  3.193803087690794E-003           0
  2.528775826459873E-002  3.193803087690794E-003           0
  2.951357434465773E-002  3.193803087690794E-003           0
  3.391184925053858E-002  3.193803087690794E-003           0
  3.848962116043930E-002  3.193803087690794E-003           0
  4.325421548605934E-002  3.193803087690794E-003           0
  4.821325659482056E-002  3.193803087690794E-003           0
  5.337468001048218E-002  3.193803087690794E-003           0
  5.874674511167172E-002  3.193803087690794E-003           0
  6.433804834865270E-002  3.193803087690794E-003           0
  7.015753699947930E-002  3.193803087690794E-003           0
  7.621452348754992E-002  3.193803087690794E-003           0
  8.251870028347152E-002  3.193803087690794E-003           0
  8.908015541508035E-002  3.193803087690794E-003           0
  9.590938861043885E-002  3.193803087690794E-003           0
  0.103017328099640       3.193803087690794E-003           0
  0.110415348102309       3.193803087690794E-003           0
  0.118115287028777       3.193803087690794E-003           0
  0.126129466424068       3.193803087690794E-003           0
  0.134470710684998       3.193803087690794E-003           0
  0.143152367581944       3.193803087690794E-003           0
  0.152188329618127       3.193803087690794E-003           0
  0.161593056260580       3.193803087690794E-003           0
  0.171381597078379       3.193803087690794E-003           0
  0.181569615825166       3.193803087690794E-003           0
  0.192173415504497       3.193803087690794E-003           0
  0.203209964458122       3.193803087690794E-003           0
  0.214696923518956       3.193803087690794E-003           0
  0.226652674272179       3.193803087690794E-003           0
  0.239096348469693       3.193803087690794E-003           0
  0.252047858645005       3.193803087690794E-003           0
  0.265527929977532       3.193803087690794E-003           0
  0.279558133457308       3.193803087690794E-003           0
  0.294160920403170       3.193803087690794E-003           0
  0.309359658389660       3.193803087690794E-003           0
  0.325178668640125       3.193803087690794E-003           0
  0.341643264945870       3.193803087690794E-003           0
  0.358779794173617       3.193803087690794E-003           0
  0.376615678426119       3.193803087690794E-003           0
  0.395179458923371       3.193803087690794E-003           0
  0.414500841674653       3.193803087690794E-003           0
  0.434610745014483       3.193803087690794E-003           0
  0.455541349078546       3.193803087690794E-003           0
  0.477326147298777       3.193803087690794E-003           0
  0.500000000000001       3.193803087690794E-003           0
  0.522673852701224       3.193803087690794E-003           0
  0.544458650921455       3.193803087690794E-003           0
  0.565389254985518       3.193803087690794E-003           0
  0.585499158325348       3.193803087690794E-003           0
  0.604820541076630       3.193803087690794E-003           0
  0.623384321573882       3.193803087690794E-003           0
  0.641220205826384       3.193803087690794E-003           0
  0.658356735054131       3.193803087690794E-003           0
  0.674821331359875       3.193803087690794E-003           0
  0.690640341610341       3.193803087690794E-003           0
  0.705839079596830       3.193803087690794E-003           0
  0.720441866542693       3.193803087690794E-003           0
  0.734472070022469       3.193803087690794E-003           0
  0.747952141354996       3.193803087690794E-003           0
  0.760903651530308       3.193803087690794E-003           0
  0.773347325727821       3.193803087690794E-003           0
  0.785303076481045       3.193803087690794E-003           0
  0.796790035541879       3.193803087690794E-003           0
  0.807826584495504       3.193803087690794E-003           0
  0.818430384174834       3.193803087690794E-003           0
  0.828618402921621       3.193803087690794E-003           0
  0.838406943739421       3.193803087690794E-003           0
  0.847811670381874       3.193803087690794E-003           0
  0.856847632418057       3.193803087690794E-003           0
  0.865529289315003       3.193803087690794E-003           0
  0.873870533575933       3.193803087690794E-003           0
  0.881884712971224       3.193803087690794E-003           0
  0.889584651897692       3.193803087690794E-003           0
  0.896982671900360       3.193803087690794E-003           0
  0.904090611389561       3.193803087690794E-003           0
  0.910919844584920       3.193803087690794E-003           0
  0.917481299716529       3.193803087690794E-003           0
  0.923785476512450       3.193803087690794E-003           0
  0.929842463000521       3.193803087690794E-003           0
  0.935661951651348       3.193803087690794E-003           0
  0.941253254888329       3.193803087690794E-003           0
  0.946625319989518       3.193803087690794E-003           0
  0.951786743405180       3.193803087690794E-003           0
  0.956745784513941       3.193803087690794E-003           0
  0.961510378839561       3.193803087690794E-003           0
  0.966088150749462       3.193803087690794E-003           0
  0.970486425655342       3.193803087690794E-003           0
  0.974712241735401       3.193803087690794E-003           0
  0.978772361196922       3.193803087690794E-003           0
  0.982673281097248       3.193803087690794E-003           0
  0.986421243740460       3.193803087690794E-003           0
  0.990022246666396       3.193803087690794E-003           0
  0.993482052247992       3.193803087690794E-003           0
  0.996806196912309       3.193803087690794E-003           0
   1.00000000000000       3.193803087690794E-003           2
  0.000000000000000E+000  6.517947752008202E-003           4
  3.193803087690794E-003  6.517947752008202E-003           0
  6.517947752008202E-003  6.517947752008202E-003           0
  9.977753333603956E-003  6.517947752008202E-003           0
  1.357875625953969E-002  6.517947752008202E-003           0
  1.732671890275206E-002  6.517947752008202E-003           0
  2.122763880307799E-002  6.517947752008202E-003           0
  2.528775826459873E-002  6.517947752008202E-003           0
  2.951357434465773E-002  6.517947752008202E-003           0
  3.391184925053858E-002  6.517947752008202E-003           0
  3.848962116043930E-002  6.517947752008202E-003           0
  4.325421548605934E-002  6.517947752008202E-003           0
  4.821325659482056E-002  6.517947752008202E-003           0
  5.337468001048218E-002  6.517947752008202E-003           0
  5.874674511167172E-002  6.517947752008202E-003           0
  6.433804834865270E-002  6.517947752008202E-003           0
  7.015753699947930E-002  6.517947752008202E-003           0
  7.621452348754992E-002  6.517947752008202E-003           0
  8.251870028347152E-002  6.517947752008202E-003           0
  8.908015541508035E-002  6.517947752008202E-003           0
  9.590938861043885E-002  6.517947752008202E-003           0
  0.103017328099640       6.517947752008202E-003           0
  0.110415348102309       6.517947752008202E-003           0
  0.118115287028777       6.517947752008202E-003           0
  0.126129466424068       6.517947752008202E-003           0
  0.134470710684998       6.517947752008202E-003           0
  0.143152367581944       6.517947752008202E-003           0
  0.152188329618127       6.517947752008202E-003           0
  0.161593056260580       6.517947752008202E-003           0
  0.171381597078379       6.517947752008202E-003           0
  0.181569615825166       6.517947752008202E-003           0
  0.192173415504497       6.517947752008202E-003           0
  0.203209964458122       6.517947752008202E-003           0
  0.214696923518956       6.517947752008202E-003           0
  0.226652674272179       6.517947752008202E-003           0
  0.239096348469693       6.517947752008202E-003           0
  0.252047858645005       6.517947752008202E-003           0
  0.265527929977532       6.517947752008202E-003           0
  0.279558133457308       6.517947752008202E-003           0
  0.294160920403170       6.517947752008202E-003           0
  0.309359658389660       6.517947752008202E-003           0
  0.325178668640125       6.517947752008202E-003           0
  0.341643264945870       6.517947752008202E-003           0
  0.358779794173617       6.517947752008202E-003           0
  0.376615678426119       6.517947752008202E-003           0
  0.395179458923371       6.517947752008202E-003           0
  0.414500841674653       6.517947752008202E-003           0
  0.434610745014483       6.517947752008202E-003           0
  0.455541349078546       6.517947752008202E-003           0
  0.477326147298777       6.517947752008202E-003           0
  0.500000000000001       6.517947752008202E-003           0
  0.522673852701224       6.517947752008202E-003           0
  0.544458650921455       6.517947752008202E-003           0
  0.565389254985518       6.517947752008202E-003           0
  0.585499158325348       6.517947752008202E-003           0
  0.604820541076630       6.517947752008202E-003           0
  0.623384321573882       6.517947752008202E-003           0
  0.641220205826384       6.517947752008202E-003           0
  0.658356735054131       6.517947752008202E-003           0
  0.674821331359875       6.517947752008202E-003           0
  0.690640341610341       6.517947752008202E-003           0
  0.705839079596830       6.517947752008202E-003           0
  0.720441866542693       6.517947752008202E-003           0
  0.734472070022469       6.517947752008202E-003           0
  0.747952141354996       6.517947752008202E-003           0
  0.760903651530308       6.517947752008202E-003           0
  0.773347325727821       6.517947752008202E-003           0
  0.785303076481045       6.517947752008202E-003           0
  0.796790035541879       6.517947752008202E-003           0
  0.807826584495504       6.517947752008202E-003           0
  0.818430384174834       6.517947752008202E-003           0
  0.828618402921621       6.517947752008202E-003           0
  0.838406943739421       6.517947752008202E-003           0
  0.847811670381874       6.517947752008202E-003           0
  0.856847632418057       6.517947752008202E-003           0
  0.865529289315003       6.517947752008202E-003           0
  0.873870533575933       6.517947752008202E-003           0
  0.881884712971224       6.517947752008202E-003           0
  0.889584651897692       6.517947752008202E-003           0
  0.896982671900360       6.517947752008202E-003           0
  0.904090611389561       6.517947752008202E-003           0
  0.910919844584920       6.517947752008202E-003           0
  0.917481299716529       6.517947752008202E-003           0
  0.923785476512450       6.517947752008202E-003           0
  0.929842463000521       6.517947752008202E-003           0
  0.935661951651348       6.517947752008202E-003           0
  0.941253254888329       6.517947752008202E-003           0
  0.946625319989518       6.517947752008202E-003           0
  0.951786743405180       6.517947752008202E-003           0
  0.956745784513941       6.517947752008202E-003           0
  0.961510378839561       6.517947752008202E-003           0
  0.966088150749462       6.517947752008202E-003           0
  0.970486425655342       6.517947752008202E-003           0
  0.974712241735401       6.517947752008202E-003           0
  0.978772361196922       6.517947752008202E-003           0
  0.982673281097248       6.517947752008202E-003           0
  0.986421243740460       6.517947752008202E-003           0
  0.990022246666396       6.517947752008202E-003           0
  0.993482052247992       6.517947752008202E-003           0
  0.996806196912309       6.517947752008202E-003           0
   1.00000000000000       6.517947752008202E-003           2
  0.000000000000000E+000  9.977753333603956E-003           4
  3.193803087690794E-003  9.977753333603956E-003           0
  6.517947752008202E-003  9.977753333603956E-003           0
  9.977753333603956E-003  9.977753333603956E-003           0
  1.357875625953969E-002  9.977753333603956E-003           0
  1.732671890275206E-002  9.977753333603956E-003           0
  2.122763880307799E-002  9.977753333603956E-003           0
  2.528775826459873E-002  9.977753333603956E-003           0
  2.951357434465773E-002  9.977753333603956E-003           0
  3.391184925053858E-002  9.977753333603956E-003           0
  3.848962116043930E-002  9.977753333603956E-003           0
  4.325421548605934E-002  9.977753333603956E-003           0
  4.821325659482056E-002  9.977753333603956E-003           0
  5.337468001048218E-002  9.977753333603956E-003           0
  5.874674511167172E-002  9.977753333603956E-003           0
  6.433804834865270E-002  9.977753333603956E-003           0
  7.015753699947930E-002  9.977753333603956E-003           0
  7.621452348754992E-002  9.977753333603956E-003           0
  8.251870028347152E-002  9.977753333603956E-003           0
  8.908015541508035E-002  9.977753333603956E-003           0
  9.590938861043885E-002  9.977753333603956E-003           0
  0.103017328099640       9.977753333603956E-003           0
  0.110415348102309       9.977753333603956E-003           0
  0.118115287028777       9.977753333603956E-003           0
  0.126129466424068       9.977753333603956E-003           0
  0.134470710684998       9.977753333603956E-003           0
  0.143152367581944       9.977753333603956E-003           0
  0.152188329618127       9.977753333603956E-003           0
  0.161593056260580       9.977753333603956E-003           0
  0.171381597078379       9.977753333603956E-003           0
  0.181569615825166       9.977753333603956E-003           0
  0.192173415504497       9.977753333603956E-003           0
  0.203209964458122       9.977753333603956E-003           0
  0.214696923518956       9.977753333603956E-003           0
  0.226652674272179       9.977753333603956E-003           0
  0.239096348469693       9.977753333603956E-003           0
  0.252047858645005       9.977753333603956E-003           0
  0.265527929977532       9.977753333603956E-003           0
  0.279558133457308       9.977753333603956E-003           0
  0.294160920403170       9.977753333603956E-003           0
  0.309359658389660       9.977753333603956E-003           0
  0.325178668640125       9.977753333603956E-003           0
  0.341643264945870       9.977753333603956E-003           0
  0.358779794173617       9.977753333603956E-003           0
  0.376615678426119       9.977753333603956E-003           0
  0.395179458923371       9.977753333603956E-003           0
  0.414500841674653       9.977753333603956E-003           0
  0.434610745014483       9.977753333603956E-003           0
  0.455541349078546       9.977753333603956E-003           0
  0.477326147298777       9.977753333603956E-003           0
  0.500000000000001       9.977753333603956E-003           0
  0.522673852701224       9.977753333603956E-003           0
  0.544458650921455       9.977753333603956E-003           0
  0.565389254985518       9.977753333603956E-003           0
  0.585499158325348       9.977753333603956E-003           0
  0.604820541076630       9.977753333603956E-003           0
  0.623384321573882       9.977753333603956E-003           0
  0.641220205826384       9.977753333603956E-003           0
  0.658356735054131       9.977753333603956E-003           0
  0.674821331359875       9.977753333603956E-003           0
  0.690640341610341       9.977753333603956E-003           0
  0.705839079596830       9.977753333603956E-003           0
  0.720441866542693       9.977753333603956E-003           0
  0.734472070022469       9.977753333603956E-003           0
  0.747952141354996       9.977753333603956E-003           0
  0.760903651530308       9.977753333603956E-003           0
  0.773347325727821       9.977753333603956E-003           0
  0.785303076481045       9.977753333603956E-003           0
  0.796790035541879       9.977753333603956E-003           0
  0.807826584495504       9.977753333603956E-003           0
  0.818430384174834       9.977753333603956E-003           0
  0.828618402921621       9.977753333603956E-003           0
  0.838406943739421       9.977753333603956E-003           0
  0.847811670381874       9.977753333603956E-003           0
  0.856847632418057       9.977753333603956E-003           0
  0.865529289315003       9.977753333603956E-003           0
  0.873870533575933       9.977753333603956E-003           0
  0.881884712971224       9.977753333603956E-003           0
  0.889584651897692       9.977753333603956E-003           0
  0.896982671900360       9.977753333603956E-003           0
  0.904090611389561       9.977753333603956E-003           0
  0.910919844584920       9.977753333603956E-003           0
  0.917481299716529       9.977753333603956E-003           0
  0.923785476512450       9.977753333603956E-003           0
  0.929842463000521       9.977753333603956E-003           0
  0.935661951651348       9.977753333603956E-003           0
  0.941253254888329       9.977753333603956E-003           0
  0.946625319989518       9.977753333603956E-003           0
  0.951786743405180       9.977753333603956E-003           0
  0.956745784513941       9.977753333603956E-003           0
  0.961510378839561       9.977753333603956E-003           0
  0.966088150749462       9.977753333603956E-003           0
  0.970486425655342       9.977753333603956E-003           0
  0.974712241735401       9.977753333603956E-003           0
  0.978772361196922       9.977753333603956E-003           0
  0.982673281097248       9.977753333603956E-003           0
  0.986421243740460       9.977753333603956E-003           0
  0.990022246666396       9.977753333603956E-003           0
  0.993482052247992       9.977753333603956E-003           0
  0.996806196912309       9.977753333603956E-003           0
   1.00000000000000       9.977753333603956E-003           2
  0.000000000000000E+000  1.357875625953969E-002           4
  3.193803087690794E-003  1.357875625953969E-002           0
  6.517947752008202E-003  1.357875625953969E-002           0
  9.977753333603956E-003  1.357875625953969E-002           0
  1.357875625953969E-002  1.357875625953969E-002           0
  1.732671890275206E-002  1.357875625953969E-002           0
  2.122763880307799E-002  1.357875625953969E-002           0
  2.528775826459873E-002  1.357875625953969E-002           0
  2.951357434465773E-002  1.357875625953969E-002           0
  3.391184925053858E-002  1.357875625953969E-002           0
  3.848962116043930E-002  1.357875625953969E-002           0
  4.325421548605934E-002  1.357875625953969E-002           0
  4.821325659482056E-002  1.357875625953969E-002           0
  5.337468001048218E-002  1.357875625953969E-002           0
  5.874674511167172E-002  1.357875625953969E-002           0
  6.433804834865270E-002  1.357875625953969E-002           0
  7.015753699947930E-002  1.357875625953969E-002           0
  7.621452348754992E-002  1.357875625953969E-002           0
  8.251870028347152E-002  1.357875625953969E-002           0
  8.908015541508035E-002  1.357875625953969E-002           0
  9.590938861043885E-002  1.357875625953969E-002           0
  0.103017328099640       1.357875625953969E-002           0
  0.110415348102309       1.357875625953969E-002           0
  0.118115287028777       1.357875625953969E-002           0
  0.126129466424068       1.357875625953969E-002           0
  0.134470710684998       1.357875625953969E-002           0
  0.143152367581944       1.357875625953969E-002           0
  0.152188329618127       1.357875625953969E-002           0
  0.161593056260580       1.357875625953969E-002           0
  0.171381597078379       1.357875625953969E-002           0
  0.181569615825166       1.357875625953969E-002           0
  0.192173415504497       1.357875625953969E-002           0
  0.203209964458122       1.357875625953969E-002           0
  0.214696923518956       1.357875625953969E-002           0
  0.226652674272179       1.357875625953969E-002           0
  0.239096348469693       1.357875625953969E-002           0
  0.252047858645005       1.357875625953969E-002           0
  0.265527929977532       1.357875625953969E-002           0
  0.279558133457308       1.357875625953969E-002           0
  0.294160920403170       1.357875625953969E-002           0
  0.309359658389660       1.357875625953969E-002           0
  0.325178668640125       1.357875625953969E-002           0
  0.341643264945870       1.357875625953969E-002           0
  0.358779794173617       1.357875625953969E-002           0
  0.376615678426119       1.357875625953969E-002           0
  0.395179458923371       1.357875625953969E-002           0
  0.414500841674653       1.357875625953969E-002           0
  0.434610745014483       1.357875625953969E-002           0
  0.455541349078546       1.357875625953969E-002           0
  0.477326147298777       1.357875625953969E-002           0
  0.500000000000001       1.357875625953969E-002           0
  0.522673852701224       1.357875625953969E-002           0
  0.544458650921455       1.357875625953969E-002           0
  0.565389254985518       1.357875625953969E-002           0
  0.585499158325348       1.357875625953969E-002           0
  0.604820541076630       1.357875625953969E-002           0
  0.623384321573882       1.357875625953969E-002           0
  0.641220205826384       1.357875625953969E-002           0
  0.658356735054131       1.357875625953969E-002           0
  0.674821331359875       1.357875625953969E-002           0
  0.690640341610341       1.357875625953969E-002           0
  0.705839079596830       1.357875625953969E-002           0
  0.720441866542693       1.357875625953969E-002           0
  0.734472070022469       1.357875625953969E-002           0
  0.747952141354996       1.357875625953969E-002           0
  0.760903651530308       1.357875625953969E-002           0
  0.773347325727821       1.357875625953969E-002           0
  0.785303076481045       1.357875625953969E-002           0
  0.796790035541879       1.357875625953969E-002           0
  0.807826584495504       1.357875625953969E-002           0
  0.818430384174834       1.357875625953969E-002           0
  0.828618402921621       1.357875625953969E-002           0
  0.838406943739421       1.357875625953969E-002           0
  0.847811670381874       1.357875625953969E-002           0
  0.856847632418057       1.357875625953969E-002           0
  0.865529289315003       1.357875625953969E-002           0
  0.873870533575933       1.357875625953969E-002           0
  0.881884712971224       1.357875625953969E-002           0
  0.889584651897692       1.357875625953969E-002           0
  0.896982671900360       1.357875625953969E-002           0
  0.904090611389561       1.357875625953969E-002           0
  0.910919844584920       1.357875625953969E-002           0
  0.917481299716529       1.357875625953969E-002           0
  0.923785476512450       1.357875625953969E-002           0
  0.929842463000521       1.357875625953969E-002           0
  0.935661951651348       1.357875625953969E-002           0