# vtk DataFile Version 3.0
      Instananeous Variables Output
ASCII
DATASET UNSTRUCTURED_GRID
POINTS      10201 double
   0.0000000000000000        0.0000000000000000        0.0000000000000000     
   3.1938030999999999E-003   0.0000000000000000        0.0000000000000000     
   6.5179477999999999E-003   0.0000000000000000        0.0000000000000000     
   9.9777532999999995E-003   0.0000000000000000        0.0000000000000000     
   1.3578756000000001E-002   0.0000000000000000        0.0000000000000000     
   1.7326719000000001E-002   0.0000000000000000        0.0000000000000000     
   2.1227639000000000E-002   0.0000000000000000        0.0000000000000000     
   2.5287758000000000E-002   0.0000000000000000        0.0000000000000000     
   2.9513574000000001E-002   0.0000000000000000        0.0000000000000000     
   3.3911849000000001E-002   0.0000000000000000        0.0000000000000000     
   3.8489621000000002E-002   0.0000000000000000        0.0000000000000000     
   4.3254214999999999E-002   0.0000000000000000        0.0000000000000000     
   4.8213257000000002E-002   0.0000000000000000        0.0000000000000000     
   5.3374680000000001E-002   0.0000000000000000        0.0000000000000000     
   5.8746745000000003E-002   0.0000000000000000        0.0000000000000000     
   6.4338047999999995E-002   0.0000000000000000        0.0000000000000000     
   7.0157537000000006E-002   0.0000000000000000        0.0000000000000000     
   7.6214523000000006E-002   0.0000000000000000        0.0000000000000000     
   8.2518700000000000E-002   0.0000000000000000        0.0000000000000000     
   8.9080154999999994E-002   0.0000000000000000        0.0000000000000000     
   9.5909388999999998E-002   0.0000000000000000        0.0000000000000000     
  0.10301733000000000        0.0000000000000000        0.0000000000000000     
  0.11041535000000000        0.0000000000000000        0.0000000000000000     
  0.11811529000000000        0.0000000000000000        0.0000000000000000     
  0.12612946999999999        0.0000000000000000        0.0000000000000000     
  0.13447070999999999        0.0000000000000000        0.0000000000000000     
  0.14315237000000000        0.0000000000000000        0.0000000000000000     
  0.15218833000000001        0.0000000000000000        0.0000000000000000     
  0.16159306000000001        0.0000000000000000        0.0000000000000000     
  0.17138160000000000        0.0000000000000000        0.0000000000000000     
  0.18156961999999999        0.0000000000000000        0.0000000000000000     
  0.19217342000000001        0.0000000000000000        0.0000000000000000     
  0.20320996000000000        0.0000000000000000        0.0000000000000000     
  0.21469692000000001        0.0000000000000000        0.0000000000000000     
  0.22665267000000000        0.0000000000000000        0.0000000000000000     
  0.23909635000000001        0.0000000000000000        0.0000000000000000     
  0.25204786000000001        0.0000000000000000        0.0000000000000000     
  0.26552793000000002        0.0000000000000000        0.0000000000000000     
  0.27955813000000002        0.0000000000000000        0.0000000000000000     
  0.29416091999999999        0.0000000000000000        0.0000000000000000     
  0.30935965999999998        0.0000000000000000        0.0000000000000000     
  0.32517867000000000        0.0000000000000000        0.0000000000000000     
  0.34164326000000000        0.0000000000000000        0.0000000000000000     
  0.35877978999999999        0.0000000000000000        0.0000000000000000     
  0.37661568000000001        0.0000000000000000        0.0000000000000000     
  0.39517945999999998        0.0000000000000000        0.0000000000000000     
  0.41450083999999998        0.0000000000000000        0.0000000000000000     
  0.43461074999999999        0.0000000000000000        0.0000000000000000     
  0.45554135000000001        0.0000000000000000        0.0000000000000000     
  0.47732615000000000        0.0000000000000000        0.0000000000000000     
  0.50000000000000000        0.0000000000000000        0.0000000000000000     
  0.52267385000000000        0.0000000000000000        0.0000000000000000     
  0.54445865000000004        0.0000000000000000        0.0000000000000000     
  0.56538924999999995        0.0000000000000000        0.0000000000000000     
  0.58549916000000002        0.0000000000000000        0.0000000000000000     
  0.60482053999999996        0.0000000000000000        0.0000000000000000     
  0.62338431999999999        0.0000000000000000        0.0000000000000000     
  0.64122020999999996        0.0000000000000000        0.0000000000000000     
  0.65835674000000000        0.0000000000000000        0.0000000000000000     
  0.67482133000000000        0.0000000000000000        0.0000000000000000     
  0.69064033999999996        0.0000000000000000        0.0000000000000000     
  0.70583907999999995        0.0000000000000000        0.0000000000000000     
  0.72044187000000004        0.0000000000000000        0.0000000000000000     
  0.73447207000000003        0.0000000000000000        0.0000000000000000     
  0.74795213999999999        0.0000000000000000        0.0000000000000000     
  0.76090365000000004        0.0000000000000000        0.0000000000000000     
  0.77334733000000000        0.0000000000000000        0.0000000000000000     
  0.78530308000000004        0.0000000000000000        0.0000000000000000     
  0.79679003999999998        0.0000000000000000        0.0000000000000000     
  0.80782657999999996        0.0000000000000000        0.0000000000000000     
  0.81843038000000001        0.0000000000000000        0.0000000000000000     
  0.82861839999999998        0.0000000000000000        0.0000000000000000     
  0.83840694000000004        0.0000000000000000        0.0000000000000000     
  0.84781167000000002        0.0000000000000000        0.0000000000000000     
  0.85684762999999997        0.0000000000000000        0.0000000000000000     
  0.86552929000000001        0.0000000000000000        0.0000000000000000     
  0.87387053000000003        0.0000000000000000        0.0000000000000000     
  0.88188471000000002        0.0000000000000000        0.0000000000000000     
  0.88958464999999998        0.0000000000000000        0.0000000000000000     
  0.89698266999999998        0.0000000000000000        0.0000000000000000     
  0.90409061000000002        0.0000000000000000        0.0000000000000000     
  0.91091984000000004        0.0000000000000000        0.0000000000000000     
  0.91748130000000006        0.0000000000000000        0.0000000000000000     
  0.92378548000000005        0.0000000000000000        0.0000000000000000     
  0.92984246000000004        0.0000000000000000        0.0000000000000000     
  0.93566194999999996        0.0000000000000000        0.0000000000000000     
  0.94125325000000004        0.0000000000000000        0.0000000000000000     
  0.94662531999999999        0.0000000000000000        0.0000000000000000     
  0.95178673999999996        0.0000000000000000        0.0000000000000000     
  0.95674577999999999        0.0000000000000000        0.0000000000000000     
  0.96151038000000000        0.0000000000000000        0.0000000000000000     
  0.96608815000000003        0.0000000000000000        0.0000000000000000     
  0.97048643000000001        0.0000000000000000        0.0000000000000000     
  0.97471224000000001        0.0000000000000000        0.0000000000000000     
  0.97877236000000001        0.0000000000000000        0.0000000000000000     
  0.98267327999999998        0.0000000000000000        0.0000000000000000     
  0.98642123999999998        0.0000000000000000        0.0000000000000000     
  0.99002224999999999        0.0000000000000000        0.0000000000000000     
  0.99348205000000001        0.0000000000000000        0.0000000000000000     
  0.99680619999999998        0.0000000000000000        0.0000000000000000     
   1.0000000000000000        0.0000000000000000        0.0000000000000000     
   0.0000000000000000        3.1938030999999999E-003   0.0000000000000000     
   3.1938030999999999E-003   3.1938030999999999E-003   0.0000000000000000     
   6.5179477999999999E-003   3.1938030999999999E-003   0.0000000000000000     
   9.9777532999999995E-003   3.1938030999999999E-003   0.0000000000000000     
   1.3578756000000001E-002   3.1938030999999999E-003   0.0000000000000000     
   1.7326719000000001E-002   3.1938030999999999E-003   0.0000000000000000     
   2.1227639000000000E-002   3.1938030999999999E-003   0.0000000000000000     
   2.5287758000000000E-002   3.1938030999999999E-003   0.0000000000000000     
   2.9513574000000001E-002   3.1938030999999999E-003   0.0000000000000000     
   3.3911849000000001E-002   3.1938030999999999E-003   0.0000000000000000     
   3.8489621000000002E-002   3.1938030999999999E-003   0.0000000000000000     
   4.3254214999999999E-002   3.1938030999999999E-003   0.0000000000000000     
   4.8213257000000002E-002   3.1938030999999999E-003   0.0000000000000000     
   5.3374680000000001E-002   3.1938030999999999E-003   0.0000000000000000     
   5.8746745000000003E-002   3.1938030999999999E-003   0.0000000000000000     
   6.4338047999999995E-002   3.1938030999999999E-003   0.0000000000000000     
   7.0157537000000006E-002   3.1938030999999999E-003   0.0000000000000000     
   7.6214523000000006E-002   3.1938030999999999E-003   0.0000000000000000     
   8.2518700000000000E-002   3.1938030999999999E-003   0.0000000000000000     
   8.9080154999999994E-002   3.1938030999999999E-003   0.0000000000000000     
   9.5909388999999998E-002   3.1938030999999999E-003   0.0000000000000000     
  0.10301733000000000        3.1938030999999999E-003   0.0000000000000000     
  0.11041535000000000        3.1938030999999999E-003   0.0000000000000000     
  0.11811529000000000        3.1938030999999999E-003   0.0000000000000000     
[...]
POINT_DATA      10201
 VECTORS velocity float 
   0.0000000000000000        0.0000000000000000        0.0000000000000000     
   0.0000000000000000        0.0000000000000000        0.0000000000000000     
   0.0000000000000000        0.0000000000000000        0.0000000000000000     
   0.0000000000000000        0.0000000000000000        0.0000000000000000     
   0.0000000000000000        0.0000000000000000        0.0000000000000000     
   0.0000000000000000        0.0000000000000000        0.0000000000000000     
   0.0000000000000000        0.0000000000000000        0.0000000000000000     
   0.0000000000000000        0.0000000000000000        0.0000000000000000     
   0.0000000000000000        0.0000000000000000        0.0000000000000000     
   0.0000000000000000        0.0000000000000000        0.0000000000000000     
   0.0000000000000000        0.0000000000000000        0.0000000000000000     
   0.0000000000000000        0.0000000000000000        0.0000000000000000     
   0.0000000000000000        0.0000000000000000        0.0000000000000000     
   0.0000000000000000        0.0000000000000000        0.0000000000000000     
   0.0000000000000000        0.0000000000000000        0.0000000000000000     
   0.0000000000000000        0.0000000000000000        0.0000000000000000     
   0.0000000000000000        0.0000000000000000        0.0000000000000000     
   0.0000000000000000        0.0000000000000000        0.0000000000000000     
   0.0000000000000000        0.0000000000000000        0.0000000000000000     
   0.0000000000000000        0.0000000000000000        0.0000000000000000     
   0.0000000000000000        0.0000000000000000        0.0000000000000000     
   0.0000000000000000        0.0000000000000000        0.0000000000000000     
   0.0000000000000000        0.0000000000000000        0.0000000000000000     
   0.0000000000000000        0.0000000000000000        0.0000000000000000     
   0.0000000000000000        0.0000000000000000        0.0000000000000000     
   0.0000000000000000        0.0000000000000000        0.0000000000000000     
   0.0000000000000000        0.0000000000000000        0.0000000000000000     
   0.0000000000000000        0.0000000000000000        0.0000000000000000     
   0.0000000000000000        0.0000000000000000        0.0000000000000000     
   0.0000000000000000        0.0000000000000000        0.0000000000000000     
   0.0000000000000000        0.0000000000000000        0.0000000000000000     
   0.0000000000000000        0.0000000000000000        0.0000000000000000     
   0.0000000000000000        0.0000000000000000        0.0000000000000000     
   0.0000000000000000        0.0000000000000000        0.0000000000000000     
   0.0000000000000000        0.0000000000000000        0.0000000000000000     
   0.0000000000000000        0.0000000000000000        0.0000000000000000     
   0.0000000000000000        0.0000000000000000        0.0000000000000000     
   0.0000000000000000        0.0000000000000000        0.0000000000000000     
   0.0000000000000000        0.0000000000000000        0.0000000000000000     
   0.0000000000000000        0.0000000000000000        0.0000000000000000     
   0.0000000000000000        0.0000000000000000        0.0000000000000000     
   0.0000000000000000        0.0000000000000000        0.0000000000000000     
   0.0000000000000000        0.0000000000000000        0.0000000000000000     
   0.0000000000000000        0.0000000000000000        0.0000000000000000     
   0.0000000000000000        0.0000000000000000        0.0000000000000000     
   0.0000000000000000        0.0000000000000000        0.0000000000000000     
   0.0000000000000000        0.0000000000000000        0.0000000000000000     
   0.0000000000000000        0.0000000000000000        0.0000000000000000     
   0.0000000000000000        0.0000000000000000        0.0000000000000000     
   0.0000000000000000        0.0000000000000000        0.0000000000000000     
   0.0000000000000000        0.0000000000000000        0.0000000000000000     
   0.0000000000000000        0.0000000000000000        0.0000000000000000     
   0.0000000000000000        0.0000000000000000        0.0000000000000000     
   0.0000000000000000        0.0000000000000000        0.0000000000000000     
   0.0000000000000000        0.0000000000000000        0.0000000000000000     
   0.0000000000000000        0.0000000000000000        0.0000000000000000     
   0.0000000000000000        0.0000000000000000        0.0000000000000000     
   0.0000000000000000        0.0000000000000000        0.0000000000000000     
   0.0000000000000000        0.0000000000000000        0.0000000000000000     
   0.0000000000000000        0.0000000000000000        0.0000000000000000     
   0.0000000000000000        0.0000000000000000        0.0000000000000000     
   0.0000000000000000        0.0000000000000000        0.0000000000000000     
   0.0000000000000000        0.0000000000000000        0.0000000000000000     
   0.0000000000000000        0.0000000000000000        0.0000000000000000     
   0.0000000000000000        0.0000000000000000        0.0000000000000000     
   0.0000000000000000        0.0000000000000000        0.0000000000000000     
   0.0000000000000000        0.0000000000000000        0.0000000000000000     
   0.0000000000000000        0.0000000000000000        0.0000000000000000     
   0.0000000000000000        0.0000000000000000        0.0000000000000000     
   0.0000000000000000        0.0000000000000000        0.0000000000000000     
   0.0000000000000000        0.0000000000000000        0.0000000000000000     
   0.0000000000000000        0.0000000000000000        0.0000000000000000     
   0.0000000000000000        0.0000000000000000        0.0000000000000000     
   0.0000000000000000        0.0000000000000000        0.0000000000000000     
   0.0000000000000000        0.0000000000000000        0.0000000000000000     
   0.0000000000000000        0.0000000000000000        0.0000000000000000     
   0.0000000000000000        0.0000000000000000        0.0000000000000000     
   0.0000000000000000        0.0000000000000000        0.0000000000000000     
   0.0000000000000000        0.0000000000000000        0.0000000000000000     
   0.0000000000000000        0.0000000000000000        0.0000000000000000     
   0.0000000000000000        0.0000000000000000        0.0000000000000000     
   0.0000000000000000        0.0000000000000000        0.0000000000000000     
   0.0000000000000000        0.0000000000000000        0.0000000000000000     
   0.0000000000000000        0.0000000000000000        0.0000000000000000     
   0.0000000000000000        0.0000000000000000        0.0000000000000000     
   0.0000000000000000        0.0000000000000000        0.0000000000000000     
   0.0000000000000000        0.0000000000000000        0.0000000000000000     
   0.0000000000000000        0.0000000000000000        0.0000000000000000     
   0.0000000000000000        0.0000000000000000        0.0000000000000000     
   0.0000000000000000        0.0000000000000000        0.0000000000000000     
   0.0000000000000000        0.0000000000000000        0.0000000000000000     
   0.0000000000000000        0.0000000000000000        0.0000000000000000     
   0.0000000000000000        0.0000000000000000        0.0000000000000000     
   0.0000000000000000        0.0000000000000000        0.0000000000000000     
   0.0000000000000000        0.0000000000000000        0.0000000000000000     
   0.0000000000000000        0.0000000000000000        0.0000000000000000     
   0.0000000000000000        0.0000000000000000        0.0000000000000000     
   0.0000000000000000        0.0000000000000000        0.0000000000000000     
   0.0000000000000000        0.0000000000000000        0.0000000000000000     
   0.0000000000000000        0.0000000000000000        0.0000000000000000     
   0.0000000000000000        0.0000000000000000        0.0000000000000000     
   0.0000000000000000        0.0000000000000000        0.0000000000000000     
  -6.6787373184338005E-006   3.5076363714962211E-006   0.0000000000000000     
  -1.0324602136281770E-005   3.1690338770073756E-006   0.0000000000000000     
  -7.3932221747266899E-006  -1.0131630089131118E-006   0.0000000000000000     
   7.2458996022659925E-006  -7.2278946328576148E-006   0.0000000000000000     
   3.7160062001333439E-005  -1.4175021223280856E-005   0.0000000000000000     
   8.4438560710100766E-005  -2.1182862498461535E-005   0.0000000000000000     
   1.5018572884179079E-004  -2.7903179779370244E-005   0.0000000000000000     
   2.3477880795747568E-004  -3.4109268636104113E-005   0.0000000000000000     
   3.3794909291921457E-004  -3.9614281400567023E-005   0.0000000000000000     
   4.5878908723206139E-004  -4.4246232975056981E-005   0.0000000000000000     
   5.9572825237334478E-004  -4.7846256480503620E-005   0.0000000000000000     
   7.4649250628767018E-004  -5.0272259994012263E-005   0.0000000000000000     
   9.0810211675255699E-004  -5.1410208716720587E-005   0.0000000000000000     
   1.0769057982197979E-003  -5.1186878153815080E-005   0.0000000000000000     
   1.2486622156512770E-003  -4.9587384273177370E-005   0.0000000000000000     
   1.4187112695681831E-003  -4.6665471207926737E-005   0.0000000000000000     
   1.5822138349227640E-003  -4.2557071157415036E-005   0.0000000000000000     
   1.7344535370619129E-003  -3.7482856573934705E-005   0.0000000000000000     
   1.8712198277622922E-003  -3.1743500293777601E-005   0.0000000000000000     
   1.9892034059989052E-003  -2.5708502078373490E-005   0.0000000000000000     
   2.0863908095286724E-003  -1.9787626540103974E-005   0.0000000000000000     
   2.1623952078248009E-003  -1.4401433850312726E-005   0.0000000000000000     
   2.2186579491061940E-003  -9.9390348462179463E-006   0.0000000000000000     
   2.2584706633968542E-003  -6.7135368768682500E-006   0.0000000000000000     
   2.2867255453267875E-003  -4.9103070332461967E-006   0.0000000000000000     
   2.3093608503985900E-003  -4.5440497228003629E-006   0.0000000000000000     
   2.3324625464274003E-003  -5.4183251484454525E-006   0.0000000000000000     
   2.3610344452594844E-003  -7.1112208296918741E-006   0.0000000000000000     
   2.3975703638613281E-003  -8.9967205001459023E-006   0.0000000000000000     
   2.4406679831860808E-003  -1.0321564110654061E-005   0.0000000000000000     
   2.4840354319260395E-003  -1.0330279933990821E-005   0.0000000000000000     
   2.5161709492527704E-003  -8.4184699224772106E-006   0.0000000000000000     
   2.5206771412349823E-003  -4.2090345495393141E-006   0.0000000000000000     
   2.4767960196486350E-003   2.4989145777791985E-006   0.0000000000000000     
   2.3592866635604500E-003   1.1923467157035334E-005   0.0000000000000000     
   2.1369378553503706E-003   2.4525320309379084E-005   0.0000000000000000     
   1.7699643400042344E-003   4.1105288179426144E-005   0.0000000000000000     
   1.2070660638311981E-003   6.2694403579354810E-005   0.0000000000000000     
   3.8402309180416425E-004   9.0355077544029410E-005   0.0000000000000000     
  -7.7621234604082227E-004   1.2485433381989738E-004   0.0000000000000000     
  -2.3589463111316523E-003   1.6632926316831345E-004   0.0000000000000000     
  -4.4503208230234478E-003   2.1423864893285071E-004   0.0000000000000000     
  -7.1228043529370563E-003   2.6610594979059886E-004   0.0000000000000000     
  -1.0413419015313946E-002   3.1794000697743085E-004   0.0000000000000000     
  -1.4301032442140699E-002   3.6386598030751041E-004   0.0000000000000000     
  -1.8676713827369004E-002   3.9574298465954599E-004   0.0000000000000000     
  -2.3322761727683498E-002   4.0421278272290866E-004   0.0000000000000000     
  -2.7884978484940010E-002   3.8071741967648473E-004   0.0000000000000000     
  -3.1895714341146152E-002   3.1660758291349774E-004   0.0000000000000000     
  -3.4717161449900905E-002   2.0006315597370997E-004   0.0000000000000000     
  -3.5675379122298477E-002   4.1182064205762682E-005   0.0000000000000000     
  -3.4486385561819675E-002  -1.3849042810708750E-004   0.0000000000000000     
  -3.1209926574095728E-002  -3.2475103903347499E-004   0.0000000000000000     
  -2.6140603783798944E-002  -4.9187020427246195E-004   0.0000000000000000     
  -1.9768968162577973E-002  -6.1991830219609845E-004   0.0000000000000000     
  -1.2703848832795716E-002  -6.9050878788215605E-004   0.0000000000000000     
  -5.5898552192591485E-003  -6.9729462314165893E-004   0.0000000000000000     
   9.9838743746888739E-004  -6.4382012522151168E-004   0.0000000000000000     
   6.6254848914633676E-003  -5.4321701418817952E-004   0.0000000000000000     
   1.1035197888039010E-002  -4.1359478888775529E-004   0.0000000000000000     
   1.4147568266391491E-002  -2.7377829868313993E-004   0.0000000000000000     
   1.6027735149136135E-002  -1.3956832885403592E-004   0.0000000000000000     
   1.6838837816573513E-002  -2.1976612524376968E-005   0.0000000000000000     
   1.6794460934853029E-002   7.3040025171983196E-005   0.0000000000000000     
   1.6119305442946909E-002   1.4373683537634185E-004   0.0000000000000000     
   1.5022017469797314E-002   1.9138100099576211E-004   0.0000000000000000     
   1.3679640723357474E-002   2.1904838577170129E-004   0.0000000000000000     
   1.2231443380513563E-002   2.3063894384686394E-004   0.0000000000000000     
   1.0779248652800147E-002   2.3016461974468216E-004   0.0000000000000000     
   9.3916785864956130E-003   2.2129459102352195E-004   0.0000000000000000     
   8.1102651882383314E-003   2.0711195520683198E-004   0.0000000000000000     
   6.9559536803248216E-003   1.9003329742621833E-004   0.0000000000000000     
   5.9350904112039663E-003   1.7183498967826964E-004   0.0000000000000000     
   5.0444256586012958E-003   1.5373763243922361E-004   0.0000000000000000     
   4.2749734048476871E-003   1.3651985366738083E-004   0.0000000000000000     
   3.6148043956572540E-003   1.2062985657836877E-004   0.0000000000000000     
   3.0509284021883105E-003   1.0628186848426363E-004   0.0000000000000000     
   2.5704833916771227E-003   9.3537560766259785E-005   0.0000000000000000     
   2.1614216768522628E-003   8.2361438572707048E-005   0.0000000000000000     
   1.8128632498561610E-003   7.2658842157385801E-005   0.0000000000000000     
   1.5152413641839927E-003   6.4300012854011778E-005   0.0000000000000000     
   1.2603259313106743E-003   5.7134026368927582E-005   0.0000000000000000     
   1.0411833054681473E-003   5.0994947163310084E-005   0.0000000000000000     
   8.5209555831797614E-004   4.5707725427129806E-005   0.0000000000000000     
   6.8845878941102144E-004   4.1091899286125422E-005   0.0000000000000000     
   5.4666827946602686E-004   3.6966721276786695E-005   0.0000000000000000     
   4.2398749811941992E-004   3.3158273908209709E-005   0.0000000000000000     
   3.1841043770274382E-004   2.9506579241448987E-005   0.0000000000000000     
   2.2851482543148339E-004   2.5872530127139780E-005   0.0000000000000000     
   1.5331346272532735E-004   2.2145286018528461E-005   0.0000000000000000     
   9.2104149841202107E-005   1.8250795099459748E-005   0.0000000000000000     
   4.4320784303260130E-005   1.4158895383353635E-005   0.0000000000000000     
   9.3878693992826939E-006   9.8916784390306955E-006   0.0000000000000000     
  -1.3430726840294349E-005   5.5363432074097145E-006   0.0000000000000000     
  -2.5190057239460070E-005   1.2680641614601359E-006   0.0000000000000000     
  -2.7430096564618291E-005  -2.6003216916786245E-006   0.0000000000000000     
  -2.2369622084001437E-005  -5.5279368967624161E-006   0.0000000000000000     
  -1.3287155409029228E-005  -6.6362836066010753E-006   0.0000000000000000     
  -4.8366877260254368E-006  -4.8275592979514639E-006   0.0000000000000000     
   0.0000000000000000        0.0000000000000000        0.0000000000000000     
   0.0000000000000000        0.0000000000000000        0.0000000000000000     
  -4.7899473399128402E-006   8.1140369644621738E-006   0.0000000000000000     
  -2.5157599301340263E-006   8.1785090874418763E-007   0.0000000000000000     
   1.3598282823300723E-005  -1.6390099427647475E-005   0.0000000000000000     
   5.1222851754983905E-005  -3.9076697741403205E-005   0.0000000000000000     
   1.1609743569889153E-004  -6.4129185585618049E-005   0.0000000000000000     
   2.1206261531400781E-004  -8.9549365466616069E-005   0.0000000000000000     
   3.4147967323866680E-004  -1.1402783032162967E-004   0.0000000000000000     
   5.0540500485426174E-004  -1.3661065613200361E-004   0.0000000000000000     
   7.0364358781692632E-004  -1.5652032128075723E-004   0.0000000000000000     
   9.3474608320875702E-004  -1.7307966307437671E-004   0.0000000000000000     
   1.1959692709205768E-003  -1.8569280057361044E-004   0.0000000000000000     
   1.4832242585665295E-003  -1.9385466037464121E-004   0.0000000000000000     
   1.7910725818079689E-003  -1.9717872909232387E-004   0.0000000000000000     
   2.1127918987833951E-003  -1.9544337018911358E-004   0.0000000000000000     
   2.4405305360797017E-003  -1.8863850257234310E-004   0.0000000000000000     
   2.7656088607880252E-003  -1.7700768709012974E-004   0.0000000000000000     
   3.0789498822242278E-003  -1.6108497509454830E-004   0.0000000000000000     
   3.3716351984064202E-003  -1.4170175589415688E-004   0.0000000000000000     
   3.6355908262067126E-003  -1.1996735264727363E-004   0.0000000000000000     
   3.8643242107973220E-003  -9.7221612386359622E-005   0.0000000000000000     
   4.0536540024063514E-003  -7.4942120449550929E-005   0.0000000000000000     
   4.2023335747320605E-003  -5.4626443390981979E-005   0.0000000000000000     
   4.3124422332463525E-003  -3.7638088002814706E-005   0.0000000000000000     
   4.3894363100064650E-003  -2.5041918549151322E-005   0.0000000000000000     
   4.4416968438002382E-003  -1.7423362872382542E-005   0.0000000000000000     
   4.4794871130453299E-003  -1.4722933707548474E-005   0.0000000000000000     
   4.5132514245651203E-003  -1.6111095902159666E-005   0.0000000000000000     
   4.5512838621446731E-003  -1.9947409155749301E-005   0.0000000000000000     
   4.5969981401968443E-003  -2.3876004532126380E-005   0.0000000000000000     
   4.6462578159827727E-003  -2.5119533766794278E-005   0.0000000000000000     
   4.6853660338912794E-003  -2.0910356600908922E-005   0.0000000000000000     
   4.6902413344534323E-003  -8.9699147024311047E-006   0.0000000000000000     
   4.6267386770202567E-003   1.2266932139611506E-005   0.0000000000000000     
   4.4513376331509905E-003   4.3857970272903286E-005   0.0000000000000000     
   4.1107195638465516E-003   8.6971507527109902E-005   0.0000000000000000     
   3.5390484726765732E-003   1.4354531853361764E-004   0.0000000000000000     
   2.6534330980663629E-003   2.1648920715434242E-004   0.0000000000000000     
   1.3491722187387006E-003   3.0919978998664491E-004   0.0000000000000000     
  -5.0174337211517203E-004   4.2466993138787397E-004   0.0000000000000000     
  -3.0484498415653759E-003   5.6424227066237203E-004   0.0000000000000000     
  -6.4497336563601971E-003   7.2640866671379648E-004   0.0000000000000000     
  -1.0856580167105168E-002   9.0594229397445933E-004   0.0000000000000000     
  -1.6380833415304195E-002   1.0907813194666726E-003   0.0000000000000000     
  -2.3052174442214475E-002   1.2631727751650816E-003   0.0000000000000000     
  -3.0775935464916474E-002   1.3992626810346515E-003   0.0000000000000000     
  -3.9283107913453366E-002   1.4696837203844410E-003   0.0000000000000000     
  -4.8100390109024518E-002   1.4439734756182679E-003   0.0000000000000000     
  -5.6518213448552353E-002   1.2957510925088261E-003   0.0000000000000000     
  -6.3643089084505028E-002   1.0019189292446247E-003   0.0000000000000000     