 VARIABLES = "X","Y","U","V","P","T"
 ZONE T="8120" F=FEPOINT,ET=TRIANGLE,N=10201,E=20000
   0.0000000        0.0000000        0.0000000        0.0000000        0.0000000        0.0000000    
  0.31938031E-02    0.0000000        0.0000000        0.0000000       0.16736909E-05    0.0000000    
  0.65179478E-02    0.0000000        0.0000000        0.0000000       0.39115106E-05    0.0000000    
  0.99777533E-02    0.0000000        0.0000000        0.0000000       0.78462756E-05    0.0000000    
  0.13578756E-01    0.0000000        0.0000000        0.0000000       0.13340493E-04    0.0000000    
  0.17326719E-01    0.0000000        0.0000000        0.0000000       0.19845894E-04    0.0000000    
  0.21227639E-01    0.0000000        0.0000000        0.0000000       0.26739093E-04    0.0000000    
  0.25287758E-01    0.0000000        0.0000000        0.0000000       0.33405461E-04    0.0000000    
  0.29513574E-01    0.0000000        0.0000000        0.0000000       0.39234255E-04    0.0000000    
  0.33911849E-01    0.0000000        0.0000000        0.0000000       0.43612532E-04    0.0000000    
  0.38489621E-01    0.0000000        0.0000000        0.0000000       0.45926643E-04    0.0000000    
  0.43254215E-01    0.0000000        0.0000000        0.0000000       0.45568978E-04    0.0000000    
  0.48213257E-01    0.0000000        0.0000000        0.0000000       0.41949858E-04    0.0000000    
  0.53374680E-01    0.0000000        0.0000000        0.0000000       0.34529677E-04    0.0000000    
  0.58746745E-01    0.0000000        0.0000000        0.0000000       0.22840801E-04    0.0000000    
  0.64338048E-01    0.0000000        0.0000000        0.0000000       0.65200740E-05    0.0000000    
  0.70157537E-01    0.0000000        0.0000000        0.0000000      -0.14653308E-04    0.0000000    
  0.76214523E-01    0.0000000        0.0000000        0.0000000      -0.40744791E-04    0.0000000    
  0.82518700E-01    0.0000000        0.0000000        0.0000000      -0.71644600E-04    0.0000000    
  0.89080155E-01    0.0000000        0.0000000        0.0000000      -0.10707112E-03    0.0000000    
  0.95909389E-01    0.0000000        0.0000000        0.0000000      -0.14660970E-03    0.0000000    
  0.10301733        0.0000000        0.0000000        0.0000000      -0.18974702E-03    0.0000000    
  0.11041535        0.0000000        0.0000000        0.0000000      -0.23597208E-03    0.0000000    
  0.11811529        0.0000000        0.0000000        0.0000000      -0.28486484E-03    0.0000000    
  0.12612947        0.0000000        0.0000000        0.0000000      -0.33623743E-03    0.0000000    
  0.13447071        0.0000000        0.0000000        0.0000000      -0.39026764E-03    0.0000000    
  0.14315237        0.0000000        0.0000000        0.0000000      -0.44765120E-03    0.0000000    
  0.15218833        0.0000000        0.0000000        0.0000000      -0.50972248E-03    0.0000000    
  0.16159306        0.0000000        0.0000000        0.0000000      -0.57857363E-03    0.0000000    
  0.17138160        0.0000000        0.0000000        0.0000000      -0.65707648E-03    0.0000000    
  0.18156962        0.0000000        0.0000000        0.0000000      -0.74888278E-03    0.0000000    
  0.19217342        0.0000000        0.0000000        0.0000000      -0.85830691E-03    0.0000000    
  0.20320996        0.0000000        0.0000000        0.0000000      -0.99028271E-03    0.0000000    
  0.21469692        0.0000000        0.0000000        0.0000000      -0.11503602E-02    0.0000000    
  0.22665267        0.0000000        0.0000000        0.0000000      -0.13448849E-02    0.0000000    
  0.23909635        0.0000000        0.0000000        0.0000000      -0.15813922E-02    0.0000000    
  0.25204786        0.0000000        0.0000000        0.0000000      -0.18690443E-02    0.0000000    
  0.26552793        0.0000000        0.0000000        0.0000000      -0.22188493E-02    0.0000000    
  0.27955813        0.0000000        0.0000000        0.0000000      -0.26435041E-02    0.0000000    
  0.29416092        0.0000000        0.0000000        0.0000000      -0.31564791E-02    0.0000000    
  0.30935966        0.0000000        0.0000000        0.0000000      -0.37704881E-02    0.0000000    
  0.32517867        0.0000000        0.0000000        0.0000000      -0.44942862E-02    0.0000000    
  0.34164326        0.0000000        0.0000000        0.0000000      -0.53282856E-02    0.0000000    
  0.35877979        0.0000000        0.0000000        0.0000000      -0.62575098E-02    0.0000000    
  0.37661568        0.0000000        0.0000000        0.0000000      -0.72432707E-02    0.0000000    
  0.39517946        0.0000000        0.0000000        0.0000000      -0.82146173E-02    0.0000000    
  0.41450084        0.0000000        0.0000000        0.0000000      -0.90607742E-02    0.0000000    
  0.43461075        0.0000000        0.0000000        0.0000000      -0.96321475E-02    0.0000000    
  0.45554135        0.0000000        0.0000000        0.0000000      -0.97462578E-02    0.0000000    
  0.47732615        0.0000000        0.0000000        0.0000000      -0.92243475E-02    0.0000000    
  0.50000000        0.0000000        0.0000000        0.0000000      -0.79120141E-02    0.0000000    
  0.52267385        0.0000000        0.0000000        0.0000000      -0.58735546E-02    0.0000000    
  0.54445865        0.0000000        0.0000000        0.0000000      -0.34454271E-02    0.0000000    
  0.56538925        0.0000000        0.0000000        0.0000000      -0.97757748E-03    0.0000000    
  0.58549916        0.0000000        0.0000000        0.0000000       0.11696026E-02    0.0000000    
  0.60482054        0.0000000        0.0000000        0.0000000       0.27051823E-02    0.0000000    
  0.62338432        0.0000000        0.0000000        0.0000000       0.34524227E-02    0.0000000    
  0.64122021        0.0000000        0.0000000        0.0000000       0.33771195E-02    0.0000000    
  0.65835674        0.0000000        0.0000000        0.0000000       0.25723018E-02    0.0000000    
  0.67482133        0.0000000        0.0000000        0.0000000       0.12194279E-02    0.0000000    
  0.69064034        0.0000000        0.0000000        0.0000000      -0.46358146E-03    0.0000000    
  0.70583908        0.0000000        0.0000000        0.0000000      -0.22683729E-02    0.0000000    
  0.72044187        0.0000000        0.0000000        0.0000000      -0.40271597E-02    0.0000000    
  0.73447207        0.0000000        0.0000000        0.0000000      -0.56255357E-02    0.0000000    
  0.74795214        0.0000000        0.0000000        0.0000000      -0.70010104E-02    0.0000000    
  0.76090365        0.0000000        0.0000000        0.0000000      -0.81330764E-02    0.0000000    
  0.77334733        0.0000000        0.0000000        0.0000000      -0.90303931E-02    0.0000000    
  0.78530308        0.0000000        0.0000000        0.0000000      -0.97187167E-02    0.0000000    
  0.79679004        0.0000000        0.0000000        0.0000000      -0.10231395E-01    0.0000000    
  0.80782658        0.0000000        0.0000000        0.0000000      -0.10602849E-01    0.0000000    
  0.81843038        0.0000000        0.0000000        0.0000000      -0.10864715E-01    0.0000000    
  0.82861840        0.0000000        0.0000000        0.0000000      -0.11044010E-01    0.0000000    
  0.83840694        0.0000000        0.0000000        0.0000000      -0.11162634E-01    0.0000000    
  0.84781167        0.0000000        0.0000000        0.0000000      -0.11237663E-01    0.0000000    
  0.85684763        0.0000000        0.0000000        0.0000000      -0.11282015E-01    0.0000000    
  0.86552929        0.0000000        0.0000000        0.0000000      -0.11305224E-01    0.0000000    
  0.87387053        0.0000000        0.0000000        0.0000000      -0.11314192E-01    0.0000000    
  0.88188471        0.0000000        0.0000000        0.0000000      -0.11313829E-01    0.0000000    
  0.88958465        0.0000000        0.0000000        0.0000000      -0.11307574E-01    0.0000000    
  0.89698267        0.0000000        0.0000000        0.0000000      -0.11297793E-01    0.0000000    
  0.90409061        0.0000000        0.0000000        0.0000000      -0.11286085E-01    0.0000000    
  0.91091984        0.0000000        0.0000000        0.0000000      -0.11273498E-01    0.0000000    
  0.91748130        0.0000000        0.0000000        0.0000000      -0.11260692E-01    0.0000000    
  0.92378548        0.0000000        0.0000000        0.0000000      -0.11248054E-01    0.0000000    
  0.92984246        0.0000000        0.0000000        0.0000000      -0.11235782E-01    0.0000000    
  0.93566195        0.0000000        0.0000000        0.0000000      -0.11223955E-01    0.0000000    
  0.94125325        0.0000000        0.0000000        0.0000000      -0.11212578E-01    0.0000000    
  0.94662532        0.0000000        0.0000000        0.0000000      -0.11201618E-01    0.0000000    
  0.95178674        0.0000000        0.0000000        0.0000000      -0.11191038E-01    0.0000000    
  0.95674578        0.0000000        0.0000000        0.0000000      -0.11180815E-01    0.0000000    
  0.96151038        0.0000000        0.0000000        0.0000000      -0.11170955E-01    0.0000000    
  0.96608815        0.0000000        0.0000000        0.0000000      -0.11161507E-01    0.0000000    
  0.97048643        0.0000000        0.0000000        0.0000000      -0.11152560E-01    0.0000000    
  0.97471224        0.0000000        0.0000000        0.0000000      -0.11144255E-01    0.0000000    
  0.97877236        0.0000000        0.0000000        0.0000000      -0.11136776E-01    0.0000000    
  0.98267328        0.0000000        0.0000000        0.0000000      -0.11130349E-01    0.0000000    
  0.98642124        0.0000000        0.0000000        0.0000000      -0.11125232E-01    0.0000000    
  0.99002225        0.0000000        0.0000000        0.0000000      -0.11121679E-01    0.0000000    
  0.99348205        0.0000000        0.0000000        0.0000000      -0.11119882E-01    0.0000000    
  0.99680620        0.0000000        0.0000000        0.0000000      -0.11119705E-01    0.0000000    
   1.0000000        0.0000000        0.0000000        0.0000000      -0.11119952E-01    0.0000000    
   0.0000000       0.31938031E-02    0.0000000        0.0000000       0.16050572E-05    0.0000000    
  0.31938031E-02   0.31938031E-02  -0.66787373E-05   0.35076364E-05   0.19809661E-05    0.0000000    
  0.65179478E-02   0.31938031E-02  -0.10324602E-04   0.31690339E-05   0.35491716E-05    0.0000000    
  0.99777533E-02   0.31938031E-02  -0.73932222E-05  -0.10131630E-05   0.67934833E-05    0.0000000    
  0.13578756E-01   0.31938031E-02   0.72458996E-05  -0.72278946E-05   0.11456645E-04    0.0000000    
  0.17326719E-01   0.31938031E-02   0.37160062E-04  -0.14175021E-04   0.17043370E-04    0.0000000    
  0.21227639E-01   0.31938031E-02   0.84438561E-04  -0.21182862E-04   0.23009075E-04    0.0000000    
  0.25287758E-01   0.31938031E-02   0.15018573E-03  -0.27903180E-04   0.28796064E-04    0.0000000    
  0.29513574E-01   0.31938031E-02   0.23477881E-03  -0.34109269E-04   0.33832480E-04    0.0000000    
  0.33911849E-01   0.31938031E-02   0.33794909E-03  -0.39614281E-04   0.37533753E-04    0.0000000    
  0.38489621E-01   0.31938031E-02   0.45878909E-03  -0.44246233E-04   0.39308830E-04    0.0000000    
  0.43254215E-01   0.31938031E-02   0.59572825E-03  -0.47846256E-04   0.38567289E-04    0.0000000    
  0.48213257E-01   0.31938031E-02   0.74649251E-03  -0.50272260E-04   0.34733662E-04    0.0000000    
  0.53374680E-01   0.31938031E-02   0.90810212E-03  -0.51410209E-04   0.27277531E-04    0.0000000    
  0.58746745E-01   0.31938031E-02   0.10769058E-02  -0.51186878E-04   0.15732939E-04    0.0000000    
  0.64338048E-01   0.31938031E-02   0.12486622E-02  -0.49587384E-04  -0.26686050E-06    0.0000000    
  0.70157537E-01   0.31938031E-02   0.14187113E-02  -0.46665471E-04  -0.20957409E-04    0.0000000    
  0.76214523E-01   0.31938031E-02   0.15822138E-02  -0.42557071E-04  -0.46426239E-04    0.0000000    
  0.82518700E-01   0.31938031E-02   0.17344535E-02  -0.37482857E-04  -0.76596548E-04    0.0000000    
  0.89080155E-01   0.31938031E-02   0.18712198E-02  -0.31743500E-04  -0.11122740E-03    0.0000000    
  0.95909389E-01   0.31938031E-02   0.19892034E-02  -0.25708502E-04  -0.14995062E-03    0.0000000    
  0.10301733       0.31938031E-02   0.20863908E-02  -0.19787627E-04  -0.19230405E-03    0.0000000    
  0.11041535       0.31938031E-02   0.21623952E-02  -0.14401434E-04  -0.23782588E-03    0.0000000    
  0.11811529       0.31938031E-02   0.22186579E-02  -0.99390348E-05  -0.28613884E-03    0.0000000    
  0.12612947       0.31938031E-02   0.22584707E-02  -0.67135369E-05  -0.33708633E-03    0.0000000    
  0.13447071       0.31938031E-02   0.22867255E-02  -0.49103070E-05  -0.39086020E-03    0.0000000    
  0.14315237       0.31938031E-02   0.23093609E-02  -0.45440497E-05  -0.44814547E-03    0.0000000    
  0.15218833       0.31938031E-02   0.23324625E-02  -0.54183251E-05  -0.51024251E-03    0.0000000    
  0.16159306       0.31938031E-02   0.23610344E-02  -0.71112208E-05  -0.57917994E-03    0.0000000    
  0.17138160       0.31938031E-02   0.23975704E-02  -0.89967205E-05  -0.65774621E-03    0.0000000    
  0.18156962       0.31938031E-02   0.24406680E-02  -0.10321564E-04  -0.74949789E-03    0.0000000    
  0.19217342       0.31938031E-02   0.24840354E-02  -0.10330280E-04  -0.85865958E-03    0.0000000    
  0.20320996       0.31938031E-02   0.25161709E-02  -0.84184699E-05  -0.99009139E-03    0.0000000    
  0.21469692       0.31938031E-02   0.25206771E-02  -0.42090345E-05  -0.11492898E-02    0.0000000    
  0.22665267       0.31938031E-02   0.24767960E-02   0.24989146E-05  -0.13425591E-02    0.0000000    
  0.23909635       0.31938031E-02   0.23592867E-02   0.11923467E-04  -0.15773832E-02    0.0000000    
  0.25204786       0.31938031E-02   0.21369379E-02   0.24525320E-04  -0.18628481E-02    0.0000000    
  0.26552793       0.31938031E-02   0.17699643E-02   0.41105288E-04  -0.22098586E-02    0.0000000    
  0.27955813       0.31938031E-02   0.12070661E-02   0.62694404E-04  -0.26310030E-02    0.0000000    
  0.29416092       0.31938031E-02   0.38402309E-03   0.90355078E-04  -0.31396699E-02    0.0000000    
  0.30935966       0.31938031E-02  -0.77621235E-03   0.12485433E-03  -0.37485680E-02    0.0000000    
  0.32517867       0.31938031E-02  -0.23589463E-02   0.16632926E-03  -0.44665518E-02    0.0000000    
  0.34164326       0.31938031E-02  -0.44503208E-02   0.21423865E-03  -0.52943093E-02    0.0000000    
  0.35877979       0.31938031E-02  -0.71228044E-02   0.26610595E-03  -0.62173628E-02    0.0000000    
  0.37661568       0.31938031E-02  -0.10413419E-01   0.31794001E-03  -0.71977252E-02    0.0000000    
  0.39517946       0.31938031E-02  -0.14301032E-01   0.36386598E-03  -0.81653501E-02    0.0000000    
  0.41450084       0.31938031E-02  -0.18676714E-01   0.39574298E-03  -0.90104891E-02    0.0000000    
  0.43461075       0.31938031E-02  -0.23322762E-01   0.40421278E-03  -0.95845111E-02    0.0000000    
  0.45554135       0.31938031E-02  -0.27884978E-01   0.38071742E-03  -0.97056955E-02    0.0000000    
  0.47732615       0.31938031E-02  -0.31895714E-01   0.31660758E-03  -0.91960412E-02    0.0000000    
  0.50000000       0.31938031E-02  -0.34717161E-01   0.20006316E-03  -0.79008377E-02    0.0000000    
  0.52267385       0.31938031E-02  -0.35675379E-01   0.41182064E-04  -0.58822874E-02    0.0000000    
  0.54445865       0.31938031E-02  -0.34486386E-01  -0.13849043E-03  -0.34749988E-02    0.0000000    
  0.56538925       0.31938031E-02  -0.31209927E-01  -0.32475104E-03  -0.10267199E-02    0.0000000    
  0.58549916       0.31938031E-02  -0.26140604E-01  -0.49187020E-03   0.11042824E-02    0.0000000    
  0.60482054       0.31938031E-02  -0.19768968E-01  -0.61991830E-03   0.26287929E-02    0.0000000    
  0.62338432       0.31938031E-02  -0.12703849E-01  -0.69050879E-03   0.33710849E-02    0.0000000    
  0.64122021       0.31938031E-02  -0.55898552E-02  -0.69729462E-03   0.32970986E-02    0.0000000    
  0.65835674       0.31938031E-02   0.99838744E-03  -0.64382013E-03   0.24991634E-02    0.0000000    
  0.67482133       0.31938031E-02   0.66254849E-02  -0.54321701E-03   0.11574456E-02    0.0000000    
  0.69064034       0.31938031E-02   0.11035198E-01  -0.41359479E-03  -0.51175362E-03    0.0000000    
  0.70583908       0.31938031E-02   0.14147568E-01  -0.27377830E-03  -0.23017053E-02    0.0000000    
  0.72044187       0.31938031E-02   0.16027735E-01  -0.13956833E-03  -0.40460277E-02    0.0000000    
  0.73447207       0.31938031E-02   0.16838838E-01  -0.21976613E-04  -0.56313598E-02    0.0000000    
  0.74795214       0.31938031E-02   0.16794461E-01   0.73040025E-04  -0.69958643E-02    0.0000000    
  0.76090365       0.31938031E-02   0.16119305E-01   0.14373684E-03  -0.81193246E-02    0.0000000    
  0.77334733       0.31938031E-02   0.15022017E-01   0.19138100E-03  -0.90104040E-02    0.0000000    
  0.78530308       0.31938031E-02   0.13679641E-01   0.21904839E-03  -0.96946592E-02    0.0000000    
  0.79679004       0.31938031E-02   0.12231443E-01   0.23063894E-03  -0.10205117E-01    0.0000000    
  0.80782658       0.31938031E-02   0.10779249E-01   0.23016462E-03  -0.10575824E-01    0.0000000    
  0.81843038       0.31938031E-02   0.93916786E-02   0.22129459E-03  -0.10838046E-01    0.0000000    
  0.82861840       0.31938031E-02   0.81102652E-02   0.20711196E-03  -0.11018461E-01    0.0000000    
  0.83840694       0.31938031E-02   0.69559537E-02   0.19003330E-03  -0.11138689E-01    0.0000000    
  0.84781167       0.31938031E-02   0.59350904E-02   0.17183499E-03  -0.11215583E-01    0.0000000    
  0.85684763       0.31938031E-02   0.50444257E-02   0.15373763E-03  -0.11261895E-01    0.0000000    
  0.86552929       0.31938031E-02   0.42749734E-02   0.13651985E-03  -0.11287048E-01    0.0000000    
  0.87387053       0.31938031E-02   0.36148044E-02   0.12062986E-03  -0.11297867E-01    0.0000000    
  0.88188471       0.31938031E-02   0.30509284E-02   0.10628187E-03  -0.11299219E-01    0.0000000    
  0.88958465       0.31938031E-02   0.25704834E-02   0.93537561E-04  -0.11294520E-01    0.0000000    
  0.89698267       0.31938031E-02   0.21614217E-02   0.82361439E-04  -0.11286131E-01    0.0000000    
  0.90409061       0.31938031E-02   0.18128632E-02   0.72658842E-04  -0.11275651E-01    0.0000000    
  0.91091984       0.31938031E-02   0.15152414E-02   0.64300013E-04  -0.11264141E-01    0.0000000    
  0.91748130       0.31938031E-02   0.12603259E-02   0.57134026E-04  -0.11252273E-01    0.0000000    
  0.92378548       0.31938031E-02   0.10411833E-02   0.50994947E-04  -0.11240453E-01    0.0000000    
  0.92984246       0.31938031E-02   0.85209556E-03   0.45707725E-04  -0.11228901E-01    0.0000000    
  0.93566195       0.31938031E-02   0.68845879E-03   0.41091899E-04  -0.11217715E-01    0.0000000    
  0.94125325       0.31938031E-02   0.54666828E-03   0.36966721E-04  -0.11206922E-01    0.0000000    
  0.94662532       0.31938031E-02   0.42398750E-03   0.33158274E-04  -0.11196511E-01    0.0000000    
  0.95178674       0.31938031E-02   0.31841044E-03   0.29506579E-04  -0.11186465E-01    0.0000000    
  0.95674578       0.31938031E-02   0.22851483E-03   0.25872530E-04  -0.11176777E-01    0.0000000    
  0.96151038       0.31938031E-02   0.15331346E-03   0.22145286E-04  -0.11167467E-01    0.0000000    
  0.96608815       0.31938031E-02   0.92104150E-04   0.18250795E-04  -0.11158589E-01    0.0000000    
  0.97048643       0.31938031E-02   0.44320784E-04   0.14158895E-04  -0.11150237E-01    0.0000000    
  0.97471224       0.31938031E-02   0.93878694E-05   0.98916784E-05  -0.11142543E-01    0.0000000    
  0.97877236       0.31938031E-02  -0.13430727E-04   0.55363432E-05  -0.11135673E-01    0.0000000    
  0.98267328       0.31938031E-02  -0.25190057E-04   0.12680642E-05  -0.11129820E-01    0.0000000    
  0.98642124       0.31938031E-02  -0.27430097E-04  -0.26003217E-05  -0.11125183E-01    0.0000000    
  0.99002225       0.31938031E-02  -0.22369622E-04  -0.55279369E-05  -0.11121937E-01    0.0000000    
  0.99348205       0.31938031E-02  -0.13287155E-04  -0.66362836E-05  -0.11120214E-01    0.0000000    
  0.99680620       0.31938031E-02  -0.48366877E-05  -0.48275593E-05  -0.11119953E-01    0.0000000    
   1.0000000       0.31938031E-02    0.0000000        0.0000000      -0.11120200E-01    0.0000000    
   0.0000000       0.65179478E-02    0.0000000        0.0000000       0.34781665E-06    0.0000000    
  0.31938031E-02   0.65179478E-02  -0.47899473E-05   0.81140370E-05   0.78181798E-06    0.0000000    
  0.65179478E-02   0.65179478E-02  -0.25157599E-05   0.81785091E-06   0.21658898E-05    0.0000000    
  0.99777533E-02   0.65179478E-02   0.13598283E-04  -0.16390099E-04   0.49186908E-05    0.0000000    
  0.13578756E-01   0.65179478E-02   0.51222852E-04  -0.39076698E-04   0.87808299E-05    0.0000000    
  0.17326719E-01   0.65179478E-02   0.11609744E-03  -0.64129186E-04   0.13345827E-04    0.0000000    
  0.21227639E-01   0.65179478E-02   0.21206262E-03  -0.89549365E-04   0.18189620E-04    0.0000000    
  0.25287758E-01   0.65179478E-02   0.34147967E-03  -0.11402783E-03   0.22847402E-04    0.0000000    
  0.29513574E-01   0.65179478E-02   0.50540500E-03  -0.13661066E-03   0.26813413E-04    0.0000000    
  0.33911849E-01   0.65179478E-02   0.70364359E-03  -0.15652032E-03   0.29553706E-04    0.0000000    
  0.38489621E-01   0.65179478E-02   0.93474608E-03  -0.17307966E-03   0.30516526E-04    0.0000000    
  0.43254215E-01   0.65179478E-02   0.11959693E-02  -0.18569280E-03   0.29146457E-04    0.0000000    
  0.48213257E-01   0.65179478E-02   0.14832243E-02  -0.19385466E-03   0.24895749E-04    0.0000000    
  0.53374680E-01   0.65179478E-02   0.17910726E-02  -0.19717873E-03   0.17254427E-04    0.0000000    
  0.58746745E-01   0.65179478E-02   0.21127919E-02  -0.19544337E-03   0.57690921E-05    0.0000000    
  0.64338048E-01   0.65179478E-02   0.24405305E-02  -0.18863850E-03  -0.99244620E-05    0.0000000    
  0.70157537E-01   0.65179478E-02   0.27656089E-02  -0.17700769E-03  -0.30070652E-04    0.0000000    
  0.76214523E-01   0.65179478E-02   0.30789499E-02  -0.16108498E-03  -0.54780192E-04    0.0000000    
  0.82518700E-01   0.65179478E-02   0.33716352E-02  -0.14170176E-03  -0.84012051E-04    0.0000000    
  0.89080155E-01   0.65179478E-02   0.36355908E-02  -0.11996735E-03  -0.11757612E-03    0.0000000    
  0.95909389E-01   0.65179478E-02   0.38643242E-02  -0.97221612E-04  -0.15516431E-03    0.0000000    
  0.10301733       0.65179478E-02   0.40536540E-02  -0.74942120E-04  -0.19638471E-03    0.0000000    
  0.11041535       0.65179478E-02   0.42023336E-02  -0.54626443E-04  -0.24084553E-03    0.0000000    
  0.11811529       0.65179478E-02   0.43124422E-02  -0.37638088E-04  -0.28823644E-03    0.0000000    
  0.12612947       0.65179478E-02   0.43894363E-02  -0.25041919E-04  -0.33845284E-03    0.0000000    
  0.13447071       0.65179478E-02   0.44416968E-02  -0.17423363E-04  -0.39171630E-03    0.0000000    
  0.14315237       0.65179478E-02   0.44794871E-02  -0.14722934E-04  -0.44871147E-03    0.0000000    
  0.15218833       0.65179478E-02   0.45132514E-02  -0.16111096E-04  -0.51069943E-03    0.0000000    
  0.16159306       0.65179478E-02   0.45512839E-02  -0.19947409E-04  -0.57963035E-03    0.0000000    
  0.17138160       0.65179478E-02   0.45969981E-02  -0.23876005E-04  -0.65817883E-03    0.0000000    
  0.18156962       0.65179478E-02   0.46462578E-02  -0.25119534E-04  -0.74976107E-03    0.0000000    
  0.19217342       0.65179478E-02   0.46853660E-02  -0.20910357E-04  -0.85846265E-03    0.0000000    
  0.20320996       0.65179478E-02   0.46902413E-02  -0.89699147E-05  -0.98901520E-03    0.0000000    
  0.21469692       0.65179478E-02   0.46267387E-02   0.12266932E-04  -0.11468169E-02    0.0000000    
  0.22665267       0.65179478E-02   0.44513376E-02   0.43857970E-04  -0.13380933E-02    0.0000000    
  0.23909635       0.65179478E-02   0.41107196E-02   0.86971508E-04  -0.15702478E-02    0.0000000    
  0.25204786       0.65179478E-02   0.35390485E-02   0.14354532E-03  -0.18522594E-02    0.0000000    
  0.26552793       0.65179478E-02   0.26534331E-02   0.21648921E-03  -0.21948933E-02    0.0000000    
  0.27955813       0.65179478E-02   0.13491722E-02   0.30919979E-03  -0.26105899E-02    0.0000000    
  0.29416092       0.65179478E-02  -0.50174337E-03   0.42466993E-03  -0.31126353E-02    0.0000000    
  0.30935966       0.65179478E-02  -0.30484498E-02   0.56424227E-03  -0.37137628E-02    0.0000000    
  0.32517867       0.65179478E-02  -0.64497337E-02   0.72640867E-03  -0.44230053E-02    0.0000000    
  0.34164326       0.65179478E-02  -0.10856580E-01   0.90594229E-03  -0.52415065E-02    0.0000000    
  0.35877979       0.65179478E-02  -0.16380833E-01   0.10907813E-02  -0.61555778E-02    0.0000000    
  0.37661568       0.65179478E-02  -0.23052174E-01   0.12631728E-02  -0.71283158E-02    0.0000000    
  0.39517946       0.65179478E-02  -0.30775935E-01   0.13992627E-02  -0.80910236E-02    0.0000000    
  0.41450084       0.65179478E-02  -0.39283108E-01   0.14696837E-02  -0.89354399E-02    0.0000000    
  0.43461075       0.65179478E-02  -0.48100390E-01   0.14439735E-02  -0.95141776E-02    0.0000000    
  0.45554135       0.65179478E-02  -0.56518213E-01   0.12957511E-02  -0.96464435E-02    0.0000000    
  0.47732615       0.65179478E-02  -0.63643089E-01   0.10019189E-02  -0.91549684E-02    0.0000000    
  0.50000000       0.65179478E-02  -0.68327663E-01   0.54467943E-03  -0.78845665E-02    0.0000000    
  0.52267385       0.65179478E-02  -0.69430117E-01  -0.33831815E-04  -0.58950984E-02    0.0000000    
  0.54445865       0.65179478E-02  -0.66575756E-01  -0.66500459E-03  -0.35180384E-02    0.0000000    
  0.56538925       0.65179478E-02  -0.60000912E-01  -0.12926689E-02  -0.10979293E-02    0.0000000    
  0.58549916       0.65179478E-02  -0.50313261E-01  -0.18397966E-02   0.10094619E-02    0.0000000    
  0.60482054       0.65179478E-02  -0.38415785E-01  -0.22458039E-02   0.25171619E-02    0.0000000    
  0.62338432       0.65179478E-02  -0.25373485E-01  -0.24607633E-02   0.32506910E-02    0.0000000    
  0.64122021       0.65179478E-02  -0.12284865E-01  -0.24688656E-02   0.31763530E-02    0.0000000    
  0.65835674       0.65179478E-02  -0.12007899E-03  -0.22839861E-02   0.23858044E-02    0.0000000    
  0.67482133       0.65179478E-02   0.10379752E-01  -0.19469095E-02   0.10578464E-02    0.0000000    
  0.69064034       0.65179478E-02   0.18763105E-01  -0.15131538E-02  -0.59311951E-03    0.0000000    
  0.70583908       0.65179478E-02   0.24865217E-01  -0.10407870E-02  -0.23624303E-02    0.0000000    
  0.72044187       0.65179478E-02   0.28763772E-01  -0.57994095E-03  -0.40856739E-02    0.0000000    
  0.73447207       0.65179478E-02   0.30708535E-01  -0.16724062E-03  -0.56511243E-02    0.0000000    
  0.74795214       0.65179478E-02   0.31047286E-01   0.17556519E-03  -0.69981255E-02    0.0000000    
  0.76090365       0.65179478E-02   0.30161268E-01   0.43981875E-03  -0.81071599E-02    0.0000000    
  0.77334733       0.65179478E-02   0.28417424E-01   0.62684391E-03  -0.89871525E-02    0.0000000    
  0.78530308       0.65179478E-02   0.26138112E-01   0.74454963E-03  -0.96635736E-02    0.0000000    
  0.79679004       0.65179478E-02   0.23586070E-01   0.80442347E-03  -0.10169119E-01    0.0000000    
  0.80782658       0.65179478E-02   0.20960959E-01   0.81916281E-03  -0.10537364E-01    0.0000000    
  0.81843038       0.65179478E-02   0.18403641E-01   0.80100831E-03  -0.10799048E-01    0.0000000    
  0.82861840       0.65179478E-02   0.16004903E-01   0.76072037E-03  -0.10980340E-01    0.0000000    
  0.83840694       0.65179478E-02   0.13815901E-01   0.70709293E-03  -0.11102405E-01    0.0000000    
  0.84781167       0.65179478E-02   0.11858514E-01   0.64686551E-03  -0.11181722E-01    0.0000000    
  0.85684763       0.65179478E-02   0.10134456E-01   0.58489459E-03  -0.11230755E-01    0.0000000    
  0.86552929       0.65179478E-02   0.86326323E-02   0.52445609E-03  -0.11258714E-01    0.0000000    
  0.87387053       0.65179478E-02   0.73346844E-02   0.46759362E-03  -0.11272281E-01    0.0000000    
  0.88188471       0.65179478E-02   0.62188819E-02   0.41544461E-03  -0.11276232E-01    0.0000000    
  0.88958465       0.65179478E-02   0.52627078E-02   0.36851341E-03  -0.11273928E-01    0.0000000    
  0.89698267       0.65179478E-02   0.44444440E-02   0.32688322E-03  -0.11267705E-01    0.0000000    
  0.90409061       0.65179478E-02   0.37440720E-02   0.29036265E-03  -0.11259161E-01    0.0000000    
  0.91091984       0.65179478E-02   0.31437254E-02   0.25858301E-03  -0.11249362E-01    0.0000000    
  0.91748130       0.65179478E-02   0.26278576E-02   0.23105933E-03  -0.11238999E-01    0.0000000    
  0.92378548       0.65179478E-02   0.21832478E-02   0.20722923E-03  -0.11228501E-01    0.0000000    
  0.92984246       0.65179478E-02   0.17989017E-02   0.18647844E-03  -0.11218117E-01    0.0000000    
  0.93566195       0.65179478E-02   0.14658878E-02   0.16816571E-03  -0.11207975E-01    0.0000000    
  0.94125325       0.65179478E-02   0.11771346E-02   0.15164733E-03  -0.11198133E-01    0.0000000    
  0.94662532       0.65179478E-02   0.92718832E-03   0.13630333E-03  -0.11188608E-01    0.0000000    
  0.95178674       0.65179478E-02   0.71195382E-03   0.12156655E-03  -0.11179410E-01    0.0000000    
  0.95674578       0.65179478E-02   0.52841400E-03   0.10695172E-03  -0.11170553E-01    0.0000000    
  0.96151038       0.65179478E-02   0.37434835E-03   0.92084427E-04  -0.11162072E-01    0.0000000    