# vtk DataFile Version 3.0
CBSFlow Instantaneous Variables Output
ASCII
DATASET UNSTRUCTURED_GRID
POINTS      10201 double
   0.0000000000000000        0.0000000000000000        0.0000000000000000     
   1.6199845000000000E-003   0.0000000000000000        0.0000000000000000     
   3.3401431999999999E-003   0.0000000000000000        0.0000000000000000     
   5.1666706000000001E-003   0.0000000000000000        0.0000000000000000     
   7.1061440999999996E-003   0.0000000000000000        0.0000000000000000     
   9.1655478999999995E-003   0.0000000000000000        0.0000000000000000     
   1.1352298000000000E-002   0.0000000000000000        0.0000000000000000     
   1.3674270000000001E-002   0.0000000000000000        0.0000000000000000     
   1.6139824000000001E-002   0.0000000000000000        0.0000000000000000     
   1.8757838999999998E-002   0.0000000000000000        0.0000000000000000     
   2.1537744000000001E-002   0.0000000000000000        0.0000000000000000     
   2.4489548000000000E-002   0.0000000000000000        0.0000000000000000     
   2.7623880999999999E-002   0.0000000000000000        0.0000000000000000     
   3.0952031000000001E-002   0.0000000000000000        0.0000000000000000     
   3.4485981999999998E-002   0.0000000000000000        0.0000000000000000     
   3.8238461000000001E-002   0.0000000000000000        0.0000000000000000     
   4.2222980000000000E-002   0.0000000000000000        0.0000000000000000     
   4.6453886999999999E-002   0.0000000000000000        0.0000000000000000     
   5.0946419999999999E-002   0.0000000000000000        0.0000000000000000     
   5.5716755000000000E-002   0.0000000000000000        0.0000000000000000     
   6.0782071000000000E-002   0.0000000000000000        0.0000000000000000     
   6.6160608999999995E-002   0.0000000000000000        0.0000000000000000     
   7.1871737000000005E-002   0.0000000000000000        0.0000000000000000     
   7.7936020999999994E-002   0.0000000000000000        0.0000000000000000     
   8.4375300000000000E-002   0.0000000000000000        0.0000000000000000     
   9.1212762000000003E-002   0.0000000000000000        0.0000000000000000     
   9.8473029000000004E-002   0.0000000000000000        0.0000000000000000     
  0.10618225000000001        0.0000000000000000        0.0000000000000000     
  0.11436817000000001        0.0000000000000000        0.0000000000000000     
  0.12306029000000000        0.0000000000000000        0.0000000000000000     
  0.13228989999999999        0.0000000000000000        0.0000000000000000     
  0.14209023000000001        0.0000000000000000        0.0000000000000000     
  0.15249658999999999        0.0000000000000000        0.0000000000000000     
  0.16354642999999999        0.0000000000000000        0.0000000000000000     
  0.17527956000000000        0.0000000000000000        0.0000000000000000     
  0.18773823000000001        0.0000000000000000        0.0000000000000000     
  0.20096729999999999        0.0000000000000000        0.0000000000000000     
  0.21501440999999999        0.0000000000000000        0.0000000000000000     
  0.22993014000000001        0.0000000000000000        0.0000000000000000     
  0.24576820999999999        0.0000000000000000        0.0000000000000000     
  0.26258565000000000        0.0000000000000000        0.0000000000000000     
  0.28044302999999998        0.0000000000000000        0.0000000000000000     
  0.29940464000000000        0.0000000000000000        0.0000000000000000     
  0.31953877000000003        0.0000000000000000        0.0000000000000000     
  0.34091792999999998        0.0000000000000000        0.0000000000000000     
  0.36361911000000002        0.0000000000000000        0.0000000000000000     
  0.38772403999999999        0.0000000000000000        0.0000000000000000     
  0.41331953999999999        0.0000000000000000        0.0000000000000000     
  0.44049778000000001        0.0000000000000000        0.0000000000000000     
  0.46935662000000000        0.0000000000000000        0.0000000000000000     
  0.50000000000000000        0.0000000000000000        0.0000000000000000     
  0.53064338000000000        0.0000000000000000        0.0000000000000000     
  0.55950222000000005        0.0000000000000000        0.0000000000000000     
  0.58668045999999996        0.0000000000000000        0.0000000000000000     
  0.61227595999999995        0.0000000000000000        0.0000000000000000     
  0.63638088999999998        0.0000000000000000        0.0000000000000000     
  0.65908206999999996        0.0000000000000000        0.0000000000000000     
  0.68046123000000003        0.0000000000000000        0.0000000000000000     
  0.70059536000000000        0.0000000000000000        0.0000000000000000     
  0.71955696999999996        0.0000000000000000        0.0000000000000000     
  0.73741435000000000        0.0000000000000000        0.0000000000000000     
  0.75423178999999996        0.0000000000000000        0.0000000000000000     
  0.77006985999999999        0.0000000000000000        0.0000000000000000     
  0.78498559000000001        0.0000000000000000        0.0000000000000000     
  0.79903270000000004        0.0000000000000000        0.0000000000000000     
  0.81226176999999999        0.0000000000000000        0.0000000000000000     
  0.82472044000000000        0.0000000000000000        0.0000000000000000     
  0.83645356999999998        0.0000000000000000        0.0000000000000000     
  0.84750340999999996        0.0000000000000000        0.0000000000000000     
  0.85790977000000002        0.0000000000000000        0.0000000000000000     
  0.86771010000000004        0.0000000000000000        0.0000000000000000     
  0.87693971000000004        0.0000000000000000        0.0000000000000000     
  0.88563183000000001        0.0000000000000000        0.0000000000000000     
  0.89381774999999997        0.0000000000000000        0.0000000000000000     
  0.90152697000000004        0.0000000000000000        0.0000000000000000     
  0.90878724000000000        0.0000000000000000        0.0000000000000000     
  0.91562469999999996        0.0000000000000000        0.0000000000000000     
  0.92206398000000001        0.0000000000000000        0.0000000000000000     
  0.92812826000000004        0.0000000000000000        0.0000000000000000     
  0.93383939000000005        0.0000000000000000        0.0000000000000000     
  0.93921792999999998        0.0000000000000000        0.0000000000000000     
  0.94428325000000002        0.0000000000000000        0.0000000000000000     
  0.94905357999999995        0.0000000000000000        0.0000000000000000     
  0.95354611000000000        0.0000000000000000        0.0000000000000000     
  0.95777701999999998        0.0000000000000000        0.0000000000000000     
  0.96176154000000003        0.0000000000000000        0.0000000000000000     
  0.96551401999999997        0.0000000000000000        0.0000000000000000     
  0.96904796999999998        0.0000000000000000        0.0000000000000000     
  0.97237611999999995        0.0000000000000000        0.0000000000000000     
  0.97551045000000003        0.0000000000000000        0.0000000000000000     
  0.97846226000000003        0.0000000000000000        0.0000000000000000     
  0.98124215999999997        0.0000000000000000        0.0000000000000000     
  0.98386017999999997        0.0000000000000000        0.0000000000000000     
  0.98632573000000001        0.0000000000000000        0.0000000000000000     
  0.98864770000000002        0.0000000000000000        0.0000000000000000     
  0.99083445000000003        0.0000000000000000        0.0000000000000000     
  0.99289386000000002        0.0000000000000000        0.0000000000000000     
  0.99483332999999996        0.0000000000000000        0.0000000000000000     
  0.99665985999999995        0.0000000000000000        0.0000000000000000     
  0.99838002000000003        0.0000000000000000        0.0000000000000000     
   1.0000000000000000        0.0000000000000000        0.0000000000000000     
   0.0000000000000000        1.6199845000000000E-003   0.0000000000000000     
   1.6199845000000000E-003   1.6199845000000000E-003   0.0000000000000000     
   3.3401431999999999E-003   1.6199845000000000E-003   0.0000000000000000     
   5.1666706000000001E-003   1.6199845000000000E-003   0.0000000000000000     
   7.1061440999999996E-003   1.6199845000000000E-003   0.0000000000000000     
   9.1655478999999995E-003   1.6199845000000000E-003   0.0000000000000000     
   1.1352298000000000E-002   1.6199845000000000E-003   0.0000000000000000     
   1.3674270000000001E-002   1.6199845000000000E-003   0.0000000000000000     
   1.6139824000000001E-002   1.6199845000000000E-003   0.0000000000000000     
   1.8757838999999998E-002   1.6199845000000000E-003   0.0000000000000000     
   2.1537744000000001E-002   1.6199845000000000E-003   0.0000000000000000     
   2.4489548000000000E-002   1.6199845000000000E-003   0.0000000000000000     
   2.7623880999999999E-002   1.6199845000000000E-003   0.0000000000000000     
   3.0952031000000001E-002   1.6199845000000000E-003   0.0000000000000000     
   3.4485981999999998E-002   1.6199845000000000E-003   0.0000000000000000     
   3.8238461000000001E-002   1.6199845000000000E-003   0.0000000000000000     
   4.2222980000000000E-002   1.6199845000000000E-003   0.0000000000000000     
   4.6453886999999999E-002   1.6199845000000000E-003   0.0000000000000000     
   5.0946419999999999E-002   1.6199845000000000E-003   0.0000000000000000     
   5.5716755000000000E-002   1.6199845000000000E-003   0.0000000000000000     
   6.0782071000000000E-002   1.6199845000000000E-003   0.0000000000000000     
   6.6160608999999995E-002   1.6199845000000000E-003   0.0000000000000000     
   7.1871737000000005E-002   1.6199845000000000E-003   0.0000000000000000     
   7.7936020999999994E-002   1.6199845000000000E-003   0.0000000000000000     
[...]
POINT_DATA      10201
VECTORS velocity float
   0.0000000000000000        0.0000000000000000        0.0000000000000000     
   0.0000000000000000        0.0000000000000000        0.0000000000000000     
   0.0000000000000000        0.0000000000000000        0.0000000000000000     
   0.0000000000000000        0.0000000000000000        0.0000000000000000     
   0.0000000000000000        0.0000000000000000        0.0000000000000000     
   0.0000000000000000        0.0000000000000000        0.0000000000000000     
   0.0000000000000000        0.0000000000000000        0.0000000000000000     
   0.0000000000000000        0.0000000000000000        0.0000000000000000     
   0.0000000000000000        0.0000000000000000        0.0000000000000000     
   0.0000000000000000        0.0000000000000000        0.0000000000000000     
   0.0000000000000000        0.0000000000000000        0.0000000000000000     
   0.0000000000000000        0.0000000000000000        0.0000000000000000     
   0.0000000000000000        0.0000000000000000        0.0000000000000000     
   0.0000000000000000        0.0000000000000000        0.0000000000000000     
   0.0000000000000000        0.0000000000000000        0.0000000000000000     
   0.0000000000000000        0.0000000000000000        0.0000000000000000     
   0.0000000000000000        0.0000000000000000        0.0000000000000000     
   0.0000000000000000        0.0000000000000000        0.0000000000000000     
   0.0000000000000000        0.0000000000000000        0.0000000000000000     
   0.0000000000000000        0.0000000000000000        0.0000000000000000     
   0.0000000000000000        0.0000000000000000        0.0000000000000000     
   0.0000000000000000        0.0000000000000000        0.0000000000000000     
   0.0000000000000000        0.0000000000000000        0.0000000000000000     
   0.0000000000000000        0.0000000000000000        0.0000000000000000     
   0.0000000000000000        0.0000000000000000        0.0000000000000000     
   0.0000000000000000        0.0000000000000000        0.0000000000000000     
   0.0000000000000000        0.0000000000000000        0.0000000000000000     
   0.0000000000000000        0.0000000000000000        0.0000000000000000     
   0.0000000000000000        0.0000000000000000        0.0000000000000000     
   0.0000000000000000        0.0000000000000000        0.0000000000000000     
   0.0000000000000000        0.0000000000000000        0.0000000000000000     
   0.0000000000000000        0.0000000000000000        0.0000000000000000     
   0.0000000000000000        0.0000000000000000        0.0000000000000000     
   0.0000000000000000        0.0000000000000000        0.0000000000000000     
   0.0000000000000000        0.0000000000000000        0.0000000000000000     
   0.0000000000000000        0.0000000000000000        0.0000000000000000     
   0.0000000000000000        0.0000000000000000        0.0000000000000000     
   0.0000000000000000        0.0000000000000000        0.0000000000000000     
   0.0000000000000000        0.0000000000000000        0.0000000000000000     
   0.0000000000000000        0.0000000000000000        0.0000000000000000     
   0.0000000000000000        0.0000000000000000        0.0000000000000000     
   0.0000000000000000        0.0000000000000000        0.0000000000000000     
   0.0000000000000000        0.0000000000000000        0.0000000000000000     
   0.0000000000000000        0.0000000000000000        0.0000000000000000     
   0.0000000000000000        0.0000000000000000        0.0000000000000000     
   0.0000000000000000        0.0000000000000000        0.0000000000000000     
   0.0000000000000000        0.0000000000000000        0.0000000000000000     
   0.0000000000000000        0.0000000000000000        0.0000000000000000     
   0.0000000000000000        0.0000000000000000        0.0000000000000000     
   0.0000000000000000        0.0000000000000000        0.0000000000000000     
   0.0000000000000000        0.0000000000000000        0.0000000000000000     
   0.0000000000000000        0.0000000000000000        0.0000000000000000     
   0.0000000000000000        0.0000000000000000        0.0000000000000000     
   0.0000000000000000        0.0000000000000000        0.0000000000000000     
   0.0000000000000000        0.0000000000000000        0.0000000000000000     
   0.0000000000000000        0.0000000000000000        0.0000000000000000     
   0.0000000000000000        0.0000000000000000        0.0000000000000000     
   0.0000000000000000        0.0000000000000000        0.0000000000000000     
   0.0000000000000000        0.0000000000000000        0.0000000000000000     
   0.0000000000000000        0.0000000000000000        0.0000000000000000     
   0.0000000000000000        0.0000000000000000        0.0000000000000000     
   0.0000000000000000        0.0000000000000000        0.0000000000000000     
   0.0000000000000000        0.0000000000000000        0.0000000000000000     
   0.0000000000000000        0.0000000000000000        0.0000000000000000     
   0.0000000000000000        0.0000000000000000        0.0000000000000000     
   0.0000000000000000        0.0000000000000000        0.0000000000000000     
   0.0000000000000000        0.0000000000000000        0.0000000000000000     
   0.0000000000000000        0.0000000000000000        0.0000000000000000     
   0.0000000000000000        0.0000000000000000        0.0000000000000000     
   0.0000000000000000        0.0000000000000000        0.0000000000000000     
   0.0000000000000000        0.0000000000000000        0.0000000000000000     
   0.0000000000000000        0.0000000000000000        0.0000000000000000     
   0.0000000000000000        0.0000000000000000        0.0000000000000000     
   0.0000000000000000        0.0000000000000000        0.0000000000000000     
   0.0000000000000000        0.0000000000000000        0.0000000000000000     
   0.0000000000000000        0.0000000000000000        0.0000000000000000     
   0.0000000000000000        0.0000000000000000        0.0000000000000000     
   0.0000000000000000        0.0000000000000000        0.0000000000000000     
   0.0000000000000000        0.0000000000000000        0.0000000000000000     
   0.0000000000000000        0.0000000000000000        0.0000000000000000     
   0.0000000000000000        0.0000000000000000        0.0000000000000000     
   0.0000000000000000        0.0000000000000000        0.0000000000000000     
   0.0000000000000000        0.0000000000000000        0.0000000000000000     
   0.0000000000000000        0.0000000000000000        0.0000000000000000     
   0.0000000000000000        0.0000000000000000        0.0000000000000000     
   0.0000000000000000        0.0000000000000000        0.0000000000000000     
   0.0000000000000000        0.0000000000000000        0.0000000000000000     
   0.0000000000000000        0.0000000000000000        0.0000000000000000     
   0.0000000000000000        0.0000000000000000        0.0000000000000000     
   0.0000000000000000        0.0000000000000000        0.0000000000000000     
   0.0000000000000000        0.0000000000000000        0.0000000000000000     
   0.0000000000000000        0.0000000000000000        0.0000000000000000     
   0.0000000000000000        0.0000000000000000        0.0000000000000000     
   0.0000000000000000        0.0000000000000000        0.0000000000000000     
   0.0000000000000000        0.0000000000000000        0.0000000000000000     
   0.0000000000000000        0.0000000000000000        0.0000000000000000     
   0.0000000000000000        0.0000000000000000        0.0000000000000000     
   0.0000000000000000        0.0000000000000000        0.0000000000000000     
   0.0000000000000000        0.0000000000000000        0.0000000000000000     
   0.0000000000000000        0.0000000000000000        0.0000000000000000     
   0.0000000000000000        0.0000000000000000        0.0000000000000000     
   0.0000000000000000        0.0000000000000000        0.0000000000000000     
  -5.8581486212204049E-007   5.8602199422003717E-007   0.0000000000000000     
  -2.6236450290934865E-006   1.1370055251057681E-006   0.0000000000000000     
  -5.4952978813045778E-006   1.2510297535984830E-006   0.0000000000000000     
  -8.3670846601067140E-006   1.0331064430346524E-006   0.0000000000000000     
  -1.0418511902023958E-005   5.7180753646830386E-007   0.0000000000000000     
  -1.0861301803264529E-005  -7.1932466832368724E-008   0.0000000000000000     
  -8.9356247620602133E-006  -8.5522390956038164E-007   0.0000000000000000     
  -3.8884672335254350E-006  -1.7459302061872965E-006   0.0000000000000000     
   5.0347226786138403E-006  -2.7184169846455914E-006   0.0000000000000000     
   1.8596058670830177E-005  -3.7506650103249306E-006   0.0000000000000000     
   3.7558134806015331E-005  -4.8212826092777775E-006   0.0000000000000000     
   6.2676941945710946E-005  -5.9090441428604948E-006   0.0000000000000000     
   9.4668510232459767E-005  -6.9887243968359771E-006   0.0000000000000000     
   1.3419095867964732E-004  -8.0345447351003244E-006   0.0000000000000000     
   1.8176487240969538E-004  -9.0114129312823909E-006   0.0000000000000000     
   2.3775766982758650E-004  -9.8873839667970564E-006   0.0000000000000000     
   3.0222653958047747E-004  -1.0614071075300724E-005   0.0000000000000000     
   3.7494822011150612E-004  -1.1158067457807363E-005   0.0000000000000000     
   4.5514527097592600E-004  -1.1459793254870355E-005   0.0000000000000000     
   5.4166193825147578E-004  -1.1499356989818347E-005   0.0000000000000000     
   6.3253473717488767E-004  -1.1217250775665876E-005   0.0000000000000000     
   7.2549867067657394E-004  -1.0634269695315983E-005   0.0000000000000000     
   8.1736330222678699E-004  -9.7112412938510403E-006   0.0000000000000000     
   9.0511204712527668E-004  -8.5430159536782023E-006   0.0000000000000000     
   9.8500721992803562E-004  -7.1295593344926907E-006   0.0000000000000000     
   1.0545445646895787E-003  -5.6602892458837312E-006   0.0000000000000000     
   1.1110749573215923E-003  -4.1698279356420964E-006   0.0000000000000000     
   1.1547299631420925E-003  -2.9241450960728823E-006   0.0000000000000000     
   1.1861025277722123E-003  -1.9450814188248440E-006   0.0000000000000000     
   1.2099957484747648E-003  -1.5059415051408702E-006   0.0000000000000000     
   1.2314258044456834E-003  -1.5241722349607923E-006   0.0000000000000000     
   1.2597136843670782E-003  -2.1647283859455490E-006   0.0000000000000000     
   1.3017712121497806E-003  -3.1151606594109088E-006   0.0000000000000000     
   1.3658150587762645E-003  -4.3049178006027540E-006   0.0000000000000000     
   1.4514933591314436E-003  -5.1499792696900793E-006   0.0000000000000000     
   1.5548072017583317E-003  -5.4771775007895931E-006   0.0000000000000000     
   1.6592005245153686E-003  -4.8291964497968992E-006   0.0000000000000000     
   1.7467036102602391E-003  -3.3741516244054773E-006   0.0000000000000000     
   1.7890045007886296E-003  -8.0786599394075832E-007   0.0000000000000000     
   1.7522692013812095E-003   3.1157276543057630E-006   0.0000000000000000     
   1.5714032869311326E-003   9.5520936505210532E-006   0.0000000000000000     
   1.1469847809595932E-003   1.9458477085855253E-005   0.0000000000000000     
   3.2106085023487108E-004   3.4169380629959671E-005   0.0000000000000000     
  -1.1101822303754977E-003   5.4088350459704146E-005   0.0000000000000000     
  -3.3874229614336295E-003   7.8565655636467783E-005   0.0000000000000000     
  -6.7001389506342697E-003   1.0388734930064340E-004   0.0000000000000000     
  -1.1075799131784079E-002   1.2369357188612756E-004   0.0000000000000000     
  -1.6214571144282652E-002   1.2906254086902160E-004   0.0000000000000000     
  -2.1389619244893077E-002   1.1178316023951065E-004   0.0000000000000000     
  -2.5387638044538609E-002   6.4039422708232893E-005   0.0000000000000000     
  -2.6495172123250796E-002  -1.2536697883953141E-005   0.0000000000000000     
  -2.3960345659521747E-002  -1.0214696195139973E-004   0.0000000000000000     
  -1.8138502240306265E-002  -1.8394776067467140E-004   0.0000000000000000     
  -1.0157301546603791E-002  -2.3409625200361781E-004   0.0000000000000000     
  -1.7124086494156440E-003  -2.3731165114237697E-004   0.0000000000000000     
   5.6047042815787606E-003  -1.9664943795789211E-004   0.0000000000000000     
   1.0796132623552118E-002  -1.3046638480380948E-004   0.0000000000000000     
   1.3661905692919691E-002  -6.0149149802602834E-005   0.0000000000000000     
   1.4536362820671212E-002  -1.0971576427278244E-007   0.0000000000000000     
   1.3993711559711538E-002   4.3614234851469035E-005   0.0000000000000000     
   1.2593758821724995E-002   7.0902909138914914E-005   0.0000000000000000     
   1.0793101655552952E-002   8.4231698443394077E-005   0.0000000000000000     
   8.9114578402553213E-003   8.6928350016472733E-005   0.0000000000000000     
   7.1523446802439121E-003   8.2421963461872704E-005   0.0000000000000000     
   5.6195342135969282E-003   7.3755760984072727E-005   0.0000000000000000     
   4.3492997660863168E-003   6.3385080368528663E-005   0.0000000000000000     
   3.3320883711357558E-003   5.2941250310858473E-005   0.0000000000000000     
   2.5373054366253701E-003   4.3412435118506781E-005   0.0000000000000000     
   1.9253788890730488E-003   3.5185259434491877E-005   0.0000000000000000     
   1.4587224525160663E-003   2.8370960900932395E-005   0.0000000000000000     
   1.1038962621398871E-003   2.2833043863517832E-005   0.0000000000000000     
   8.3434033046723662E-004   1.8420948657376090E-005   0.0000000000000000     
   6.2880244572933856E-004   1.4911126418476355E-005   0.0000000000000000     
   4.7149831969760009E-004   1.2148023455136128E-005   0.0000000000000000     
   3.5025399013072976E-004   9.9534919538287629E-006   0.0000000000000000     
   2.5628805614222658E-004   8.2185843359615044E-006   0.0000000000000000     
   1.8290723669258909E-004   6.8216940580084565E-006   0.0000000000000000     
   1.2536004469014441E-004   5.6928798807695193E-006   0.0000000000000000     
   8.0040053930472582E-005   4.7533296139381487E-006   0.0000000000000000     
   4.4408670283914749E-005   3.9595249112094274E-006   0.0000000000000000     
   1.6533040353406423E-005   3.2632726578798665E-006   0.0000000000000000     
  -4.9609169461708064E-006   2.6395923596339500E-006   0.0000000000000000     
  -2.1145556775057931E-005   2.0625303971178869E-006   0.0000000000000000     
  -3.2823149358515472E-005   1.5208329848611728E-006   0.0000000000000000     
  -4.0659973927342031E-005   1.0044902637386172E-006   0.0000000000000000     
  -4.5206210803703378E-005   5.1233574553533109E-007   0.0000000000000000     
  -4.6959069589942284E-005   4.5173894829046835E-008   0.0000000000000000     
  -4.6372450036962892E-005  -3.9118245085946139E-007   0.0000000000000000     
  -4.3882076790601328E-005  -7.8912808606289963E-007   0.0000000000000000     
  -3.9907843898782502E-005  -1.1383785387420742E-006   0.0000000000000000     
  -3.4860807577574537E-005  -1.4273205133322312E-006   0.0000000000000000     
  -2.9141436528081692E-005  -1.6429157199786182E-006   0.0000000000000000     
  -2.3139247988285716E-005  -1.7711873401779391E-006   0.0000000000000000     
  -1.7228996872706580E-005  -1.7974250624753526E-006   0.0000000000000000     
  -1.1766994919839681E-005  -1.7065601611913442E-006   0.0000000000000000     
  -7.0827032840272300E-006  -1.4845295814007948E-006   0.0000000000000000     
  -3.4666775393195700E-006  -1.1209763429827838E-006   0.0000000000000000     
  -1.1265798496364049E-006  -6.2247899767456858E-007   0.0000000000000000     
  -8.5250476507136974E-008  -8.5263508950804612E-008   0.0000000000000000     
   0.0000000000000000        0.0000000000000000        0.0000000000000000     
   0.0000000000000000        0.0000000000000000        0.0000000000000000     
  -1.1349308657842424E-006   2.6227597003467961E-006   0.0000000000000000     
  -4.2983970748905387E-006   4.3017013704813607E-006   0.0000000000000000     
  -8.2909032722564389E-006   4.5799540312624260E-006   0.0000000000000000     
  -1.1907163565155906E-005   3.5643099392068451E-006   0.0000000000000000     
  -1.3817817416358872E-005   1.4880051509088594E-006   0.0000000000000000     
  -1.2614184350862253E-005  -1.4343057974662103E-006   0.0000000000000000     
  -6.8622265393151377E-006  -5.0280188914590317E-006   0.0000000000000000     
   4.9008503380035101E-006  -9.1515141538923428E-006   0.0000000000000000     
   2.4163700220918939E-005  -1.3685680376775461E-005   0.0000000000000000     
   5.2440243202299824E-005  -1.8523975627403798E-005   0.0000000000000000     
   9.1251395691165852E-005  -2.3563147757258968E-005   0.0000000000000000     
   1.4210374419203263E-004  -2.8696527835660035E-005   0.0000000000000000     
   2.0642907428915978E-004  -3.3805334425535969E-005   0.0000000000000000     
   2.8553627831770344E-004  -3.8756956170069330E-005   0.0000000000000000     
   3.8047591143180022E-004  -4.3394295576584548E-005   0.0000000000000000     
   4.9197714620120478E-004  -4.7545762975559142E-005   0.0000000000000000     
   6.2019364947463239E-004  -5.1008128548471012E-005   0.0000000000000000     
   7.6468458788368039E-004  -5.3582797301562604E-005   0.0000000000000000     
   9.2399551555988758E-004  -5.5042432305945232E-005   0.0000000000000000     
   1.0958386706217584E-003  -5.5216920299210538E-005   0.0000000000000000     
   1.2764769994199690E-003  -5.3923174143977408E-005   0.0000000000000000     
   1.4614060707854775E-003  -5.1129322287595799E-005   0.0000000000000000     
   1.6445226529123655E-003  -4.6808841056518257E-005   0.0000000000000000     
   1.8197554591199182E-003  -4.1207572748818899E-005   0.0000000000000000     
   1.9799356837110422E-003  -3.4560950211329787E-005   0.0000000000000000     
   2.1198340408564681E-003  -2.7477467074143629E-005   0.0000000000000000     
   2.2343854484811656E-003  -2.0447465226982337E-005   0.0000000000000000     
   2.3233281183084814E-003  -1.4353970336289908E-005   0.0000000000000000     
   2.3879305632001050E-003  -9.7234063602625626E-006   0.0000000000000000     
   2.4369213032312872E-003  -7.3866240982205518E-006   0.0000000000000000     
   2.4802514396004278E-003  -7.4598740419264462E-006   0.0000000000000000     
   2.5353493619650375E-003  -1.0173527463179178E-005   0.0000000000000000     
   2.6158011986979379E-003  -1.4614831341498877E-005   0.0000000000000000     
   2.7365627980520850E-003  -1.9828100553432636E-005   0.0000000000000000     
   2.8966319384263832E-003  -2.3663076209368216E-005   0.0000000000000000     
   3.0863636758539357E-003  -2.4627458062424251E-005   0.0000000000000000     
   3.2718471368082054E-003  -2.1145751424700398E-005   0.0000000000000000     
   3.4137966506295400E-003  -1.3216397798635959E-005   0.0000000000000000     
   3.4514801890692727E-003   1.0679348430412118E-007   0.0000000000000000     
   3.3094672127557145E-003   2.0777659923890254E-005   0.0000000000000000     
   2.8493487049475190E-003   5.3685489785958270E-005   0.0000000000000000     
   1.8620080944329045E-003   1.0399183023811831E-004   0.0000000000000000     
   2.4508819697526963E-005   1.7713286186206437E-004   0.0000000000000000     
  -3.0702666518701693E-003   2.7484067501043605E-004   0.0000000000000000     
  -7.8811716265245208E-003   3.9200670156534171E-004   0.0000000000000000     
  -1.4732564344148305E-002   5.0985258906128855E-004   0.0000000000000000     
  -2.3588646865693903E-002   5.9649932919848543E-004   0.0000000000000000     
  -3.3748483078860546E-002   6.1076842195140711E-004   0.0000000000000000     
  -4.3696448115813649E-002   5.1579786972219218E-004   0.0000000000000000     