 VARIABLES = "X","Y","sidep"
 ZONE F=FEPOINT,ET=QUADRILATERAL,N =       10201 ,E =       10000
  0.000000000000000E+000  0.000000000000000E+000           1
  1.619984462429058E-003  0.000000000000000E+000           1
  3.340143169471843E-003  0.000000000000000E+000           1
  5.166670550468100E-003  0.000000000000000E+000           1
  7.106144076875653E-003  0.000000000000000E+000           1
  9.165547948272457E-003  0.000000000000000E+000           1
  1.135229824301864E-002  0.000000000000000E+000           1
  1.367426962414886E-002  0.000000000000000E+000           1
  1.613982369666539E-002  0.000000000000000E+000           1
  1.875783911834716E-002  0.000000000000000E+000           1
  2.153774357250826E-002  0.000000000000000E+000           1
  2.448954771784079E-002  0.000000000000000E+000           1
  2.762388123759879E-002  0.000000000000000E+000           1
  3.095203111794015E-002  0.000000000000000E+000           1
  3.448598229326710E-002  0.000000000000000E+000           1
  3.823846080493626E-002  0.000000000000000E+000           1
  4.222297962875260E-002  0.000000000000000E+000           1
  4.645388733627881E-002  0.000000000000000E+000           1
  5.094641976519054E-002  0.000000000000000E+000           1
  5.571675488474925E-002  0.000000000000000E+000           1
  6.078207105396549E-002  0.000000000000000E+000           1
  6.616060888224640E-002  0.000000000000000E+000           1
  7.187173691529181E-002  0.000000000000000E+000           1
  7.793602138277916E-002  0.000000000000000E+000           1
  8.437530025900453E-002  0.000000000000000E+000           1
  9.121276190317823E-002  0.000000000000000E+000           1
  9.847302856256396E-002  0.000000000000000E+000           1
  0.106182245039165       0.000000000000000E+000           1
  0.114368172839249       0.000000000000000E+000           1
  0.123060290144760       0.000000000000000E+000           1
  0.132289897966611       0.000000000000000E+000           1
  0.142090232862133       0.000000000000000E+000           1
  0.152496586622582       0.000000000000000E+000           1
  0.163546433361707       0.000000000000000E+000           1
  0.175279564463035       0.000000000000000E+000           1
  0.187738231871833       0.000000000000000E+000           1
  0.200967300247748       0.000000000000000E+000           1
  0.215014408526042       0.000000000000000E+000           1
  0.229930141469215       0.000000000000000E+000           1
  0.245768211826786       0.000000000000000E+000           1
  0.262585653759212       0.000000000000000E+000           1
  0.280443028222466       0.000000000000000E+000           1
  0.299404641052895       0.000000000000000E+000           1
  0.319538774537688       0.000000000000000E+000           1
  0.340917933304864       0.000000000000000E+000           1
  0.363619105418247       0.000000000000000E+000           1
  0.387724039617654       0.000000000000000E+000           1
  0.413319539702655       0.000000000000000E+000           1
  0.440497777120014       0.000000000000000E+000           1
  0.469356622880452       0.000000000000000E+000           1
  0.500000000000001       0.000000000000000E+000           1
  0.530643377119550       0.000000000000000E+000           1
  0.559502222879988       0.000000000000000E+000           1
  0.586680460297347       0.000000000000000E+000           1
  0.612275960382347       0.000000000000000E+000           1
  0.636380894581754       0.000000000000000E+000           1
  0.659082066695137       0.000000000000000E+000           1
  0.680461225462313       0.000000000000000E+000           1
  0.700595358947106       0.000000000000000E+000           1
  0.719556971777535       0.000000000000000E+000           1
  0.737414346240789       0.000000000000000E+000           1
  0.754231788173215       0.000000000000000E+000           1
  0.770069858530786       0.000000000000000E+000           1
  0.784985591473959       0.000000000000000E+000           1
  0.799032699752253       0.000000000000000E+000           1
  0.812261768128168       0.000000000000000E+000           1
  0.824720435536966       0.000000000000000E+000           1
  0.836453566638294       0.000000000000000E+000           1
  0.847503413377418       0.000000000000000E+000           1
  0.857909767137868       0.000000000000000E+000           1
  0.867710102033390       0.000000000000000E+000           1
  0.876939709855241       0.000000000000000E+000           1
  0.885631827160752       0.000000000000000E+000           1
  0.893817754960836       0.000000000000000E+000           1
  0.901526971437436       0.000000000000000E+000           1
  0.908787238096822       0.000000000000000E+000           1
  0.915624699740996       0.000000000000000E+000           1
  0.922063978617221       0.000000000000000E+000           1
  0.928128263084709       0.000000000000000E+000           1
  0.933839391117754       0.000000000000000E+000           1
  0.939217928946035       0.000000000000000E+000           1
  0.944283245115251       0.000000000000000E+000           1
  0.949053580234810       0.000000000000000E+000           1
  0.953546112663721       0.000000000000000E+000           1
  0.957777020371248       0.000000000000000E+000           1
  0.961761539195064       0.000000000000000E+000           1
  0.965514017706733       0.000000000000000E+000           1
  0.969047968882060       0.000000000000000E+000           1
  0.972376118762401       0.000000000000000E+000           1
  0.975510452282159       0.000000000000000E+000           1
  0.978462256427492       0.000000000000000E+000           1
  0.981242160881653       0.000000000000000E+000           1
  0.983860176303335       0.000000000000000E+000           1
  0.986325730375851       0.000000000000000E+000           1
  0.988647701756981       0.000000000000000E+000           1
  0.990834452051728       0.000000000000000E+000           1
  0.992893855923124       0.000000000000000E+000           1
  0.994833329449532       0.000000000000000E+000           1
  0.996659856830528       0.000000000000000E+000           1
  0.998380015537571       0.000000000000000E+000           1
   1.00000000000000       0.000000000000000E+000           1
  0.000000000000000E+000  1.619984462429058E-003           4
  1.619984462429058E-003  1.619984462429058E-003           0
  3.340143169471843E-003  1.619984462429058E-003           0
  5.166670550468100E-003  1.619984462429058E-003           0
  7.106144076875653E-003  1.619984462429058E-003           0
  9.165547948272457E-003  1.619984462429058E-003           0
  1.135229824301864E-002  1.619984462429058E-003           0
  1.367426962414886E-002  1.619984462429058E-003           0
  1.613982369666539E-002  1.619984462429058E-003           0
  1.875783911834716E-002  1.619984462429058E-003           0
  2.153774357250826E-002  1.619984462429058E-003           0
  2.448954771784079E-002  1.619984462429058E-003           0
  2.762388123759879E-002  1.619984462429058E-003           0
  3.095203111794015E-002  1.619984462429058E-003           0
  3.448598229326710E-002  1.619984462429058E-003           0
  3.823846080493626E-002  1.619984462429058E-003           0
  4.222297962875260E-002  1.619984462429058E-003           0
  4.645388733627881E-002  1.619984462429058E-003           0
  5.094641976519054E-002  1.619984462429058E-003           0
  5.571675488474925E-002  1.619984462429058E-003           0
  6.078207105396549E-002  1.619984462429058E-003           0
  6.616060888224640E-002  1.619984462429058E-003           0
  7.187173691529181E-002  1.619984462429058E-003           0
  7.793602138277916E-002  1.619984462429058E-003           0
  8.437530025900453E-002  1.619984462429058E-003           0
  9.121276190317823E-002  1.619984462429058E-003           0
  9.847302856256396E-002  1.619984462429058E-003           0
  0.106182245039165       1.619984462429058E-003           0
  0.114368172839249       1.619984462429058E-003           0
  0.123060290144760       1.619984462429058E-003           0
  0.132289897966611       1.619984462429058E-003           0
  0.142090232862133       1.619984462429058E-003           0
  0.152496586622582       1.619984462429058E-003           0
  0.163546433361707       1.619984462429058E-003           0
  0.175279564463035       1.619984462429058E-003           0
  0.187738231871833       1.619984462429058E-003           0
  0.200967300247748       1.619984462429058E-003           0
  0.215014408526042       1.619984462429058E-003           0
  0.229930141469215       1.619984462429058E-003           0
  0.245768211826786       1.619984462429058E-003           0
  0.262585653759212       1.619984462429058E-003           0
  0.280443028222466       1.619984462429058E-003           0
  0.299404641052895       1.619984462429058E-003           0
  0.319538774537688       1.619984462429058E-003           0
  0.340917933304864       1.619984462429058E-003           0
  0.363619105418247       1.619984462429058E-003           0
  0.387724039617654       1.619984462429058E-003           0
  0.413319539702655       1.619984462429058E-003           0
  0.440497777120014       1.619984462429058E-003           0
  0.469356622880452       1.619984462429058E-003           0
  0.500000000000001       1.619984462429058E-003           0
  0.530643377119550       1.619984462429058E-003           0
  0.559502222879988       1.619984462429058E-003           0
  0.586680460297347       1.619984462429058E-003           0
  0.612275960382347       1.619984462429058E-003           0
  0.636380894581754       1.619984462429058E-003           0
  0.659082066695137       1.619984462429058E-003           0
  0.680461225462313       1.619984462429058E-003           0
  0.700595358947106       1.619984462429058E-003           0
  0.719556971777535       1.619984462429058E-003           0
  0.737414346240789       1.619984462429058E-003           0
  0.754231788173215       1.619984462429058E-003           0
  0.770069858530786       1.619984462429058E-003           0
  0.784985591473959       1.619984462429058E-003           0
  0.799032699752253       1.619984462429058E-003           0
  0.812261768128168       1.619984462429058E-003           0
  0.824720435536966       1.619984462429058E-003           0
  0.836453566638294       1.619984462429058E-003           0
  0.847503413377418       1.619984462429058E-003           0
  0.857909767137868       1.619984462429058E-003           0
  0.867710102033390       1.619984462429058E-003           0
  0.876939709855241       1.619984462429058E-003           0
  0.885631827160752       1.619984462429058E-003           0
  0.893817754960836       1.619984462429058E-003           0
  0.901526971437436       1.619984462429058E-003           0
  0.908787238096822       1.619984462429058E-003           0
  0.915624699740996       1.619984462429058E-003           0
  0.922063978617221       1.619984462429058E-003           0
  0.928128263084709       1.619984462429058E-003           0
  0.933839391117754       1.619984462429058E-003           0
  0.939217928946035       1.619984462429058E-003           0
  0.944283245115251       1.619984462429058E-003           0
  0.949053580234810       1.619984462429058E-003           0
  0.953546112663721       1.619984462429058E-003           0
  0.957777020371248       1.619984462429058E-003           0
  0.961761539195064       1.619984462429058E-003           0
  0.965514017706733       1.619984462429058E-003           0
  0.969047968882060       1.619984462429058E-003           0
  0.972376118762401       1.619984462429058E-003           0
  0.975510452282159       1.619984462429058E-003           0
  0.978462256427492       1.619984462429058E-003           0
  0.981242160881653       1.619984462429058E-003           0
  0.983860176303335       1.619984462429058E-003           0
  0.986325730375851       1.619984462429058E-003           0
  0.988647701756981       1.619984462429058E-003           0
  0.990834452051728       1.619984462429058E-003           0
  0.992893855923124       1.619984462429058E-003           0
  0.994833329449532       1.619984462429058E-003           0
  0.996659856830528       1.619984462429058E-003           0
  0.998380015537571       1.619984462429058E-003           0
   1.00000000000000       1.619984462429058E-003           2
  0.000000000000000E+000  3.340143169471843E-003           4
  1.619984462429058E-003  3.340143169471843E-003           0
  3.340143169471843E-003  3.340143169471843E-003           0
  5.166670550468100E-003  3.340143169471843E-003           0
  7.106144076875653E-003  3.340143169471843E-003           0
  9.165547948272457E-003  3.340143169471843E-003           0
  1.135229824301864E-002  3.340143169471843E-003           0
  1.367426962414886E-002  3.340143169471843E-003           0
  1.613982369666539E-002  3.340143169471843E-003           0
  1.875783911834716E-002  3.340143169471843E-003           0
  2.153774357250826E-002  3.340143169471843E-003           0
  2.448954771784079E-002  3.340143169471843E-003           0
  2.762388123759879E-002  3.340143169471843E-003           0
  3.095203111794015E-002  3.340143169471843E-003           0
  3.448598229326710E-002  3.340143169471843E-003           0
  3.823846080493626E-002  3.340143169471843E-003           0
  4.222297962875260E-002  3.340143169471843E-003           0
  4.645388733627881E-002  3.340143169471843E-003           0
  5.094641976519054E-002  3.340143169471843E-003           0
  5.571675488474925E-002  3.340143169471843E-003           0
  6.078207105396549E-002  3.340143169471843E-003           0
  6.616060888224640E-002  3.340143169471843E-003           0
  7.187173691529181E-002  3.340143169471843E-003           0
  7.793602138277916E-002  3.340143169471843E-003           0
  8.437530025900453E-002  3.340143169471843E-003           0
  9.121276190317823E-002  3.340143169471843E-003           0
  9.847302856256396E-002  3.340143169471843E-003           0
  0.106182245039165       3.340143169471843E-003           0
  0.114368172839249       3.340143169471843E-003           0
  0.123060290144760       3.340143169471843E-003           0
  0.132289897966611       3.340143169471843E-003           0
  0.142090232862133       3.340143169471843E-003           0
  0.152496586622582       3.340143169471843E-003           0
  0.163546433361707       3.340143169471843E-003           0
  0.175279564463035       3.340143169471843E-003           0
  0.187738231871833       3.340143169471843E-003           0
  0.200967300247748       3.340143169471843E-003           0
  0.215014408526042       3.340143169471843E-003           0
  0.229930141469215       3.340143169471843E-003           0
  0.245768211826786       3.340143169471843E-003           0
  0.262585653759212       3.340143169471843E-003           0
  0.280443028222466       3.340143169471843E-003           0
  0.299404641052895       3.340143169471843E-003           0
  0.319538774537688       3.340143169471843E-003           0
  0.340917933304864       3.340143169471843E-003           0
  0.363619105418247       3.340143169471843E-003           0
  0.387724039617654       3.340143169471843E-003           0
  0.413319539702655       3.340143169471843E-003           0
  0.440497777120014       3.340143169471843E-003           0
  0.469356622880452       3.340143169471843E-003           0
  0.500000000000001       3.340143169471843E-003           0
  0.530643377119550       3.340143169471843E-003           0
  0.559502222879988       3.340143169471843E-003           0
  0.586680460297347       3.340143169471843E-003           0
  0.612275960382347       3.340143169471843E-003           0
  0.636380894581754       3.340143169471843E-003           0
  0.659082066695137       3.340143169471843E-003           0
  0.680461225462313       3.340143169471843E-003           0
  0.700595358947106       3.340143169471843E-003           0
  0.719556971777535       3.340143169471843E-003           0
  0.737414346240789       3.340143169471843E-003           0
  0.754231788173215       3.340143169471843E-003           0
  0.770069858530786       3.340143169471843E-003           0
  0.784985591473959       3.340143169471843E-003           0
  0.799032699752253       3.340143169471843E-003           0
  0.812261768128168       3.340143169471843E-003           0
  0.824720435536966       3.340143169471843E-003           0
  0.836453566638294       3.340143169471843E-003           0
  0.847503413377418       3.340143169471843E-003           0
  0.857909767137868       3.340143169471843E-003           0
  0.867710102033390       3.340143169471843E-003           0
  0.876939709855241       3.340143169471843E-003           0
  0.885631827160752       3.340143169471843E-003           0
  0.893817754960836       3.340143169471843E-003           0
  0.901526971437436       3.340143169471843E-003           0
  0.908787238096822       3.340143169471843E-003           0
  0.915624699740996       3.340143169471843E-003           0
  0.922063978617221       3.340143169471843E-003           0
  0.928128263084709       3.340143169471843E-003           0
  0.933839391117754       3.340143169471843E-003           0
  0.939217928946035       3.340143169471843E-003           0
  0.944283245115251       3.340143169471843E-003           0
  0.949053580234810       3.340143169471843E-003           0
  0.953546112663721       3.340143169471843E-003           0
  0.957777020371248       3.340143169471843E-003           0
  0.961761539195064       3.340143169471843E-003           0
  0.965514017706733       3.340143169471843E-003           0
  0.969047968882060       3.340143169471843E-003           0
  0.972376118762401       3.340143169471843E-003           0
  0.975510452282159       3.340143169471843E-003           0
  0.978462256427492       3.340143169471843E-003           0
  0.981242160881653       3.340143169471843E-003           0
  0.983860176303335       3.340143169471843E-003           0
  0.986325730375851       3.340143169471843E-003           0
  0.988647701756981       3.340143169471843E-003           0
  0.990834452051728       3.340143169471843E-003           0
  0.992893855923124       3.340143169471843E-003           0
  0.994833329449532       3.340143169471843E-003           0
  0.996659856830528       3.340143169471843E-003           0
  0.998380015537571       3.340143169471843E-003           0
   1.00000000000000       3.340143169471843E-003           2
  0.000000000000000E+000  5.166670550468100E-003           4
  1.619984462429058E-003  5.166670550468100E-003           0
  3.340143169471843E-003  5.166670550468100E-003           0
  5.166670550468100E-003  5.166670550468100E-003           0
  7.106144076875653E-003  5.166670550468100E-003           0
  9.165547948272457E-003  5.166670550468100E-003           0
  1.135229824301864E-002  5.166670550468100E-003           0
  1.367426962414886E-002  5.166670550468100E-003           0
  1.613982369666539E-002  5.166670550468100E-003           0
  1.875783911834716E-002  5.166670550468100E-003           0
  2.153774357250826E-002  5.166670550468100E-003           0
  2.448954771784079E-002  5.166670550468100E-003           0
  2.762388123759879E-002  5.166670550468100E-003           0
  3.095203111794015E-002  5.166670550468100E-003           0
  3.448598229326710E-002  5.166670550468100E-003           0
  3.823846080493626E-002  5.166670550468100E-003           0
  4.222297962875260E-002  5.166670550468100E-003           0
  4.645388733627881E-002  5.166670550468100E-003           0
  5.094641976519054E-002  5.166670550468100E-003           0
  5.571675488474925E-002  5.166670550468100E-003           0
  6.078207105396549E-002  5.166670550468100E-003           0
  6.616060888224640E-002  5.166670550468100E-003           0
  7.187173691529181E-002  5.166670550468100E-003           0
  7.793602138277916E-002  5.166670550468100E-003           0
  8.437530025900453E-002  5.166670550468100E-003           0
  9.121276190317823E-002  5.166670550468100E-003           0
  9.847302856256396E-002  5.166670550468100E-003           0
  0.106182245039165       5.166670550468100E-003           0
  0.114368172839249       5.166670550468100E-003           0
  0.123060290144760       5.166670550468100E-003           0
  0.132289897966611       5.166670550468100E-003           0
  0.142090232862133       5.166670550468100E-003           0
  0.152496586622582       5.166670550468100E-003           0
  0.163546433361707       5.166670550468100E-003           0
  0.175279564463035       5.166670550468100E-003           0
  0.187738231871833       5.166670550468100E-003           0
  0.200967300247748       5.166670550468100E-003           0
  0.215014408526042       5.166670550468100E-003           0
  0.229930141469215       5.166670550468100E-003           0
  0.245768211826786       5.166670550468100E-003           0
  0.262585653759212       5.166670550468100E-003           0
  0.280443028222466       5.166670550468100E-003           0
  0.299404641052895       5.166670550468100E-003           0
  0.319538774537688       5.166670550468100E-003           0
  0.340917933304864       5.166670550468100E-003           0
  0.363619105418247       5.166670550468100E-003           0
  0.387724039617654       5.166670550468100E-003           0
  0.413319539702655       5.166670550468100E-003           0
  0.440497777120014       5.166670550468100E-003           0
  0.469356622880452       5.166670550468100E-003           0
  0.500000000000001       5.166670550468100E-003           0
  0.530643377119550       5.166670550468100E-003           0
  0.559502222879988       5.166670550468100E-003           0
  0.586680460297347       5.166670550468100E-003           0
  0.612275960382347       5.166670550468100E-003           0
  0.636380894581754       5.166670550468100E-003           0
  0.659082066695137       5.166670550468100E-003           0
  0.680461225462313       5.166670550468100E-003           0
  0.700595358947106       5.166670550468100E-003           0
  0.719556971777535       5.166670550468100E-003           0
  0.737414346240789       5.166670550468100E-003           0
  0.754231788173215       5.166670550468100E-003           0
  0.770069858530786       5.166670550468100E-003           0
  0.784985591473959       5.166670550468100E-003           0
  0.799032699752253       5.166670550468100E-003           0
  0.812261768128168       5.166670550468100E-003           0
  0.824720435536966       5.166670550468100E-003           0
  0.836453566638294       5.166670550468100E-003           0
  0.847503413377418       5.166670550468100E-003           0
  0.857909767137868       5.166670550468100E-003           0
  0.867710102033390       5.166670550468100E-003           0
  0.876939709855241       5.166670550468100E-003           0
  0.885631827160752       5.166670550468100E-003           0
  0.893817754960836       5.166670550468100E-003           0
  0.901526971437436       5.166670550468100E-003           0
  0.908787238096822       5.166670550468100E-003           0
  0.915624699740996       5.166670550468100E-003           0
  0.922063978617221       5.166670550468100E-003           0
  0.928128263084709       5.166670550468100E-003           0
  0.933839391117754       5.166670550468100E-003           0
  0.939217928946035       5.166670550468100E-003           0
  0.944283245115251       5.166670550468100E-003           0
  0.949053580234810       5.166670550468100E-003           0
  0.953546112663721       5.166670550468100E-003           0
  0.957777020371248       5.166670550468100E-003           0
  0.961761539195064       5.166670550468100E-003           0
  0.965514017706733       5.166670550468100E-003           0
  0.969047968882060       5.166670550468100E-003           0
  0.972376118762401       5.166670550468100E-003           0
  0.975510452282159       5.166670550468100E-003           0
  0.978462256427492       5.166670550468100E-003           0
  0.981242160881653       5.166670550468100E-003           0
  0.983860176303335       5.166670550468100E-003           0
  0.986325730375851       5.166670550468100E-003           0
  0.988647701756981       5.166670550468100E-003           0
  0.990834452051728       5.166670550468100E-003           0
  0.992893855923124       5.166670550468100E-003           0
  0.994833329449532       5.166670550468100E-003           0
  0.996659856830528       5.166670550468100E-003           0
  0.998380015537571       5.166670550468100E-003           0
   1.00000000000000       5.166670550468100E-003           2
  0.000000000000000E+000  7.106144076875653E-003           4
  1.619984462429058E-003  7.106144076875653E-003           0
  3.340143169471843E-003  7.106144076875653E-003           0
  5.166670550468100E-003  7.106144076875653E-003           0
  7.106144076875653E-003  7.106144076875653E-003           0
  9.165547948272457E-003  7.106144076875653E-003           0
  1.135229824301864E-002  7.106144076875653E-003           0
  1.367426962414886E-002  7.106144076875653E-003           0
  1.613982369666539E-002  7.106144076875653E-003           0
  1.875783911834716E-002  7.106144076875653E-003           0
  2.153774357250826E-002  7.106144076875653E-003           0
  2.448954771784079E-002  7.106144076875653E-003           0
  2.762388123759879E-002  7.106144076875653E-003           0
  3.095203111794015E-002  7.106144076875653E-003           0
  3.448598229326710E-002  7.106144076875653E-003           0
  3.823846080493626E-002  7.106144076875653E-003           0
  4.222297962875260E-002  7.106144076875653E-003           0
  4.645388733627881E-002  7.106144076875653E-003           0
  5.094641976519054E-002  7.106144076875653E-003           0
  5.571675488474925E-002  7.106144076875653E-003           0
  6.078207105396549E-002  7.106144076875653E-003           0
  6.616060888224640E-002  7.106144076875653E-003           0
  7.187173691529181E-002  7.106144076875653E-003           0
  7.793602138277916E-002  7.106144076875653E-003           0
  8.437530025900453E-002  7.106144076875653E-003           0
  9.121276190317823E-002  7.106144076875653E-003           0
  9.847302856256396E-002  7.106144076875653E-003           0
  0.106182245039165       7.106144076875653E-003           0
  0.114368172839249       7.106144076875653E-003           0
  0.123060290144760       7.106144076875653E-003           0
  0.132289897966611       7.106144076875653E-003           0
  0.142090232862133       7.106144076875653E-003           0
  0.152496586622582       7.106144076875653E-003           0
  0.163546433361707       7.106144076875653E-003           0
  0.175279564463035       7.106144076875653E-003           0
  0.187738231871833       7.106144076875653E-003           0
  0.200967300247748       7.106144076875653E-003           0
  0.215014408526042       7.106144076875653E-003           0
  0.229930141469215       7.106144076875653E-003           0
  0.245768211826786       7.106144076875653E-003           0
  0.262585653759212       7.106144076875653E-003           0
  0.280443028222466       7.106144076875653E-003           0
  0.299404641052895       7.106144076875653E-003           0
  0.319538774537688       7.106144076875653E-003           0
  0.340917933304864       7.106144076875653E-003           0
  0.363619105418247       7.106144076875653E-003           0
  0.387724039617654       7.106144076875653E-003           0
  0.413319539702655       7.106144076875653E-003           0
  0.440497777120014       7.106144076875653E-003           0
  0.469356622880452       7.106144076875653E-003           0
  0.500000000000001       7.106144076875653E-003           0
  0.530643377119550       7.106144076875653E-003           0
  0.559502222879988       7.106144076875653E-003           0
  0.586680460297347       7.106144076875653E-003           0
  0.612275960382347       7.106144076875653E-003           0
  0.636380894581754       7.106144076875653E-003           0
  0.659082066695137       7.106144076875653E-003           0
  0.680461225462313       7.106144076875653E-003           0
  0.700595358947106       7.106144076875653E-003           0
  0.719556971777535       7.106144076875653E-003           0
  0.737414346240789       7.106144076875653E-003           0
  0.754231788173215       7.106144076875653E-003           0
  0.770069858530786       7.106144076875653E-003           0
  0.784985591473959       7.106144076875653E-003           0
  0.799032699752253       7.106144076875653E-003           0
  0.812261768128168       7.106144076875653E-003           0
  0.824720435536966       7.106144076875653E-003           0
  0.836453566638294       7.106144076875653E-003           0
  0.847503413377418       7.106144076875653E-003           0
  0.857909767137868       7.106144076875653E-003           0
  0.867710102033390       7.106144076875653E-003           0
  0.876939709855241       7.106144076875653E-003           0
  0.885631827160752       7.106144076875653E-003           0
  0.893817754960836       7.106144076875653E-003           0
  0.901526971437436       7.106144076875653E-003           0
  0.908787238096822       7.106144076875653E-003           0
  0.915624699740996       7.106144076875653E-003           0
  0.922063978617221       7.106144076875653E-003           0
  0.928128263084709       7.106144076875653E-003           0
  0.933839391117754       7.106144076875653E-003           0
  0.939217928946035       7.106144076875653E-003           0
  0.944283245115251       7.106144076875653E-003           0
  0.949053580234810       7.106144076875653E-003           0
  0.953546112663721       7.106144076875653E-003           0
  0.957777020371248       7.106144076875653E-003           0
  0.961761539195064       7.106144076875653E-003           0