 VARIABLES = "X","Y","U","V","P","T"
 ZONE T="1630" F=FEPOINT,ET=TRIANGLE,N=2601,E=5000
   0.0000000        0.0000000        0.0000000        0.0000000        0.0000000        0.0000000    
  0.33401432E-02    0.0000000        0.0000000        0.0000000      -0.73607410E-05    0.0000000    
  0.71061441E-02    0.0000000        0.0000000        0.0000000      -0.48613192E-05    0.0000000    
  0.11352298E-01    0.0000000        0.0000000        0.0000000       0.36972679E-05    0.0000000    
  0.16139824E-01    0.0000000        0.0000000        0.0000000       0.15194392E-04    0.0000000    
  0.21537744E-01    0.0000000        0.0000000        0.0000000       0.26837517E-04    0.0000000    
  0.27623881E-01    0.0000000        0.0000000        0.0000000       0.35566831E-04    0.0000000    
  0.34485982E-01    0.0000000        0.0000000        0.0000000       0.37780489E-04    0.0000000    
  0.42222980E-01    0.0000000        0.0000000        0.0000000       0.29172402E-04    0.0000000    
  0.50946420E-01    0.0000000        0.0000000        0.0000000       0.47766106E-05    0.0000000    
  0.60782071E-01    0.0000000        0.0000000        0.0000000      -0.40922032E-04    0.0000000    
  0.71871737E-01    0.0000000        0.0000000        0.0000000      -0.11377439E-03    0.0000000    
  0.84375300E-01    0.0000000        0.0000000        0.0000000      -0.21965982E-03    0.0000000    
  0.98473029E-01    0.0000000        0.0000000        0.0000000      -0.36427041E-03    0.0000000    
  0.11436817        0.0000000        0.0000000        0.0000000      -0.55345393E-03    0.0000000    
  0.13228990        0.0000000        0.0000000        0.0000000      -0.79398897E-03    0.0000000    
  0.15249659        0.0000000        0.0000000        0.0000000      -0.10974233E-02    0.0000000    
  0.17527956        0.0000000        0.0000000        0.0000000      -0.14815157E-02    0.0000000    
  0.20096730        0.0000000        0.0000000        0.0000000      -0.19809343E-02    0.0000000    
  0.22993014        0.0000000        0.0000000        0.0000000      -0.26349252E-02    0.0000000    
  0.26258565        0.0000000        0.0000000        0.0000000      -0.35059261E-02    0.0000000    
  0.29940464        0.0000000        0.0000000        0.0000000      -0.46020633E-02    0.0000000    
  0.34091793        0.0000000        0.0000000        0.0000000      -0.59025809E-02    0.0000000    
  0.38772404        0.0000000        0.0000000        0.0000000      -0.70583625E-02    0.0000000    
  0.44049778        0.0000000        0.0000000        0.0000000      -0.74711156E-02    0.0000000    
  0.50000000        0.0000000        0.0000000        0.0000000      -0.59092594E-02    0.0000000    
  0.55950222        0.0000000        0.0000000        0.0000000      -0.25583713E-02    0.0000000    
  0.61227596        0.0000000        0.0000000        0.0000000       0.14553316E-05    0.0000000    
  0.65908207        0.0000000        0.0000000        0.0000000       0.69723774E-03    0.0000000    
  0.70059536        0.0000000        0.0000000        0.0000000      -0.29821168E-03    0.0000000    
  0.73741435        0.0000000        0.0000000        0.0000000      -0.20698272E-02    0.0000000    
  0.77006986        0.0000000        0.0000000        0.0000000      -0.38910893E-02    0.0000000    
  0.79903270        0.0000000        0.0000000        0.0000000      -0.53914680E-02    0.0000000    
  0.82472044        0.0000000        0.0000000        0.0000000      -0.64978890E-02    0.0000000    
  0.84750341        0.0000000        0.0000000        0.0000000      -0.72613623E-02    0.0000000    
  0.86771010        0.0000000        0.0000000        0.0000000      -0.77688537E-02    0.0000000    
  0.88563183        0.0000000        0.0000000        0.0000000      -0.80971633E-02    0.0000000    
  0.90152697        0.0000000        0.0000000        0.0000000      -0.83038228E-02    0.0000000    
  0.91562470        0.0000000        0.0000000        0.0000000      -0.84280782E-02    0.0000000    
  0.92812826        0.0000000        0.0000000        0.0000000      -0.84960526E-02    0.0000000    
  0.93921793        0.0000000        0.0000000        0.0000000      -0.85252981E-02    0.0000000    
  0.94905358        0.0000000        0.0000000        0.0000000      -0.85281362E-02    0.0000000    
  0.95777702        0.0000000        0.0000000        0.0000000      -0.85137098E-02    0.0000000    
  0.96551402        0.0000000        0.0000000        0.0000000      -0.84891355E-02    0.0000000    
  0.97237612        0.0000000        0.0000000        0.0000000      -0.84600861E-02    0.0000000    
  0.97846226        0.0000000        0.0000000        0.0000000      -0.84310797E-02    0.0000000    
  0.98386018        0.0000000        0.0000000        0.0000000      -0.84056337E-02    0.0000000    
  0.98864770        0.0000000        0.0000000        0.0000000      -0.83864029E-02    0.0000000    
  0.99289386        0.0000000        0.0000000        0.0000000      -0.83750704E-02    0.0000000    
  0.99665986        0.0000000        0.0000000        0.0000000      -0.83713084E-02    0.0000000    
   1.0000000        0.0000000        0.0000000        0.0000000      -0.83709916E-02    0.0000000    
   0.0000000       0.33401432E-02    0.0000000        0.0000000      -0.92172757E-05    0.0000000    
  0.33401432E-02   0.33401432E-02   0.19276912E-06   0.50579964E-05  -0.98910928E-05    0.0000000    
  0.71061441E-02   0.33401432E-02   0.60739026E-06   0.15208906E-05  -0.69478513E-05    0.0000000    
  0.11352298E-01   0.33401432E-02   0.95056166E-05  -0.39529557E-05   0.16190730E-06    0.0000000    
  0.16139824E-01   0.33401432E-02   0.32815935E-04  -0.95744969E-05   0.97772510E-05    0.0000000    
  0.21537744E-01   0.33401432E-02   0.74453982E-04  -0.14785557E-04   0.19610057E-04    0.0000000    
  0.27623881E-01   0.33401432E-02   0.13696164E-03  -0.19241106E-04   0.26836751E-04    0.0000000    
  0.34485982E-01   0.33401432E-02   0.22147134E-03  -0.22631254E-04   0.27988265E-04    0.0000000    
  0.42222980E-01   0.33401432E-02   0.32730075E-03  -0.24693660E-04   0.18866722E-04    0.0000000    
  0.50946420E-01   0.33401432E-02   0.45139375E-03  -0.25227297E-04  -0.54182687E-05    0.0000000    
  0.60782071E-01   0.33401432E-02   0.58776528E-03  -0.24108859E-04  -0.50342399E-04    0.0000000    
  0.71871737E-01   0.33401432E-02   0.72707480E-03  -0.21324854E-04  -0.12175749E-03    0.0000000    
  0.84375300E-01   0.33401432E-02   0.85652572E-03  -0.17008214E-04  -0.22561058E-03    0.0000000    
  0.98473029E-01   0.33401432E-02   0.96040921E-03  -0.11468796E-04  -0.36771981E-03    0.0000000    
  0.11436817       0.33401432E-02   0.10209903E-02  -0.51768303E-05  -0.55410483E-03    0.0000000    
  0.13228990       0.33401432E-02   0.10201273E-02   0.13673336E-05  -0.79169260E-03    0.0000000    
  0.15249659       0.33401432E-02   0.93753236E-03   0.78200260E-05  -0.10920432E-02    0.0000000    
  0.17527956       0.33401432E-02   0.74861895E-03   0.14604203E-04  -0.14726749E-02    0.0000000    
  0.20096730       0.33401432E-02   0.40631977E-03   0.22561503E-04  -0.19676549E-02    0.0000000    
  0.22993014       0.33401432E-02  -0.16609493E-03   0.34405516E-04  -0.26155341E-02    0.0000000    
  0.26258565       0.33401432E-02  -0.11159615E-02   0.50541643E-04  -0.34781694E-02    0.0000000    
  0.29940464       0.33401432E-02  -0.26217934E-02   0.74598023E-04  -0.45639987E-02    0.0000000    
  0.34091793       0.33401432E-02  -0.49202616E-02   0.10057226E-03  -0.58546075E-02    0.0000000    
  0.38772404       0.33401432E-02  -0.80264060E-02   0.12510037E-03  -0.70059038E-02    0.0000000    
  0.44049778       0.33401432E-02  -0.11567373E-01   0.12624171E-03  -0.74313105E-02    0.0000000    
  0.50000000       0.33401432E-02  -0.13990423E-01   0.55076074E-04  -0.59058732E-02    0.0000000    
  0.55950222       0.33401432E-02  -0.13188491E-01  -0.69057898E-04  -0.25989125E-02    0.0000000    
  0.61227596       0.33401432E-02  -0.94128913E-02  -0.16228154E-03  -0.69059946E-04    0.0000000    
  0.65908207       0.33401432E-02  -0.45737493E-02  -0.19539337E-03   0.62101179E-03    0.0000000    
  0.70059536       0.33401432E-02  -0.30890032E-03  -0.16508873E-03  -0.36036841E-03    0.0000000    
  0.73741435       0.33401432E-02   0.25294997E-02  -0.10587482E-03  -0.21089109E-02    0.0000000    
  0.77006986       0.33401432E-02   0.39614283E-02  -0.45924003E-04  -0.39079299E-02    0.0000000    
  0.79903270       0.33401432E-02   0.43654919E-02  -0.46813337E-06  -0.53911592E-02    0.0000000    
  0.82472044       0.33401432E-02   0.41722258E-02   0.28834757E-04  -0.64863356E-02    0.0000000    
  0.84750341       0.33401432E-02   0.36942848E-02   0.45071469E-04  -0.72432538E-02    0.0000000    
  0.86771010       0.33401432E-02   0.31229870E-02   0.52782215E-04  -0.77474182E-02    0.0000000    
  0.88563183       0.33401432E-02   0.25559615E-02   0.55469451E-04  -0.80743647E-02    0.0000000    
  0.90152697       0.33401432E-02   0.20367924E-02   0.55450775E-04  -0.82808235E-02    0.0000000    
  0.91562470       0.33401432E-02   0.15806803E-02   0.53928122E-04  -0.84055917E-02    0.0000000    
  0.92812826       0.33401432E-02   0.11904883E-02   0.51377022E-04  -0.84746046E-02    0.0000000    
  0.93921793       0.33401432E-02   0.86432374E-03   0.47867226E-04  -0.85053528E-02    0.0000000    
  0.94905358       0.33401432E-02   0.59870769E-03   0.43318673E-04  -0.85101403E-02    0.0000000    
  0.95777702       0.33401432E-02   0.38944582E-03   0.37667777E-04  -0.84980864E-02    0.0000000    
  0.96551402       0.33401432E-02   0.23167599E-03   0.30955615E-04  -0.84762416E-02    0.0000000    
  0.97237612       0.33401432E-02   0.11974175E-03   0.23368032E-04  -0.84501673E-02    0.0000000    
  0.97846226       0.33401432E-02   0.47156454E-04   0.15260610E-04  -0.84242038E-02    0.0000000    
  0.98386018       0.33401432E-02   0.66732005E-05   0.71982679E-05  -0.84016064E-02    0.0000000    
  0.98864770       0.33401432E-02  -0.97195354E-05   0.36852345E-07  -0.83846555E-02    0.0000000    
  0.99289386       0.33401432E-02  -0.10798971E-04  -0.48672421E-05  -0.83745948E-02    0.0000000    
  0.99665986       0.33401432E-02  -0.54362477E-05  -0.54327118E-05  -0.83709951E-02    0.0000000    
   1.0000000       0.33401432E-02    0.0000000        0.0000000      -0.83706766E-02    0.0000000    
   0.0000000       0.71061441E-02    0.0000000        0.0000000      -0.16341149E-04    0.0000000    
  0.33401432E-02   0.71061441E-02   0.11502410E-05   0.29967830E-05  -0.14505601E-04    0.0000000    
  0.71061441E-02   0.71061441E-02   0.10557893E-04  -0.77965649E-05  -0.10703623E-04    0.0000000    
  0.11352298E-01   0.71061441E-02   0.36331898E-04  -0.25425550E-04  -0.47932743E-05    0.0000000    
  0.16139824E-01   0.71061441E-02   0.87509538E-04  -0.45180977E-04   0.26282588E-05    0.0000000    
  0.21537744E-01   0.71061441E-02   0.17197503E-03  -0.64248453E-04   0.10000874E-04    0.0000000    
  0.27623881E-01   0.71061441E-02   0.29552554E-03  -0.80708727E-04   0.14939522E-04    0.0000000    
  0.34485982E-01   0.71061441E-02   0.46115990E-03  -0.93081611E-04   0.14272995E-04    0.0000000    
  0.42222980E-01   0.71061441E-02   0.66815129E-03  -0.10019145E-03   0.40430161E-05    0.0000000    
  0.50946420E-01   0.71061441E-02   0.91089904E-03  -0.10115450E-03  -0.20460408E-04    0.0000000    
  0.60782071E-01   0.71061441E-02   0.11777381E-02  -0.95434295E-04  -0.64591339E-04    0.0000000    
  0.71871737E-01   0.71061441E-02   0.14499790E-02  -0.82956292E-04  -0.13415611E-03    0.0000000    
  0.84375300E-01   0.71061441E-02   0.17015605E-02  -0.64248512E-04  -0.23514786E-03    0.0000000    
  0.98473029E-01   0.71061441E-02   0.18998800E-02  -0.40518229E-04  -0.37353790E-03    0.0000000    
  0.11436817       0.71061441E-02   0.20073748E-02  -0.13521606E-04  -0.55557529E-03    0.0000000    
  0.13228990       0.71061441E-02   0.19842111E-02   0.15012875E-04  -0.78844750E-03    0.0000000    
  0.15249659       0.71061441E-02   0.17850180E-02   0.44291031E-04  -0.10837873E-02    0.0000000    
  0.17527956       0.71061441E-02   0.13534248E-02   0.76359279E-04  -0.14589049E-02    0.0000000    
  0.20096730       0.71061441E-02   0.58745340E-03   0.11561518E-03  -0.19470204E-02    0.0000000    
  0.22993014       0.71061441E-02  -0.67761195E-03   0.17110381E-03  -0.25856820E-02    0.0000000    
  0.26258565       0.71061441E-02  -0.27447363E-02   0.24593802E-03  -0.34356801E-02    0.0000000    
  0.29940464       0.71061441E-02  -0.59777732E-02   0.34572476E-03  -0.45056635E-02    0.0000000    
  0.34091793       0.71061441E-02  -0.10831156E-01   0.44618728E-03  -0.57801311E-02    0.0000000    
  0.38772404       0.71061441E-02  -0.17282305E-01   0.51333975E-03  -0.69218771E-02    0.0000000    
  0.44049778       0.71061441E-02  -0.24478192E-01   0.45230827E-03  -0.73603294E-02    0.0000000    
  0.50000000       0.71061441E-02  -0.29231695E-01   0.13835887E-03  -0.58862352E-02    0.0000000    
  0.55950222       0.71061441E-02  -0.27383895E-01  -0.32589691E-03  -0.26521183E-02    0.0000000    
  0.61227596       0.71061441E-02  -0.19611298E-01  -0.67066304E-03  -0.17752412E-03    0.0000000    
  0.65908207       0.71061441E-02  -0.97806979E-02  -0.77972074E-03   0.49567244E-03    0.0000000    
  0.70059536       0.71061441E-02  -0.11156053E-02  -0.65933168E-03  -0.46885361E-03    0.0000000    
  0.73741435       0.71061441E-02   0.47131765E-02  -0.42881842E-03  -0.21820271E-02    0.0000000    
  0.77006986       0.71061441E-02   0.77310818E-02  -0.19412936E-03  -0.39443116E-02    0.0000000    
  0.79903270       0.71061441E-02   0.86692020E-02  -0.11568161E-04  -0.53977037E-02    0.0000000    
  0.82472044       0.71061441E-02   0.83742277E-02   0.10916848E-03  -0.64725210E-02    0.0000000    
  0.84750341       0.71061441E-02   0.74726509E-02   0.17884219E-03  -0.72170497E-02    0.0000000    
  0.86771010       0.71061441E-02   0.63554665E-02   0.21383649E-03  -0.77145820E-02    0.0000000    
  0.88563183       0.71061441E-02   0.52279059E-02   0.22769404E-03  -0.80385120E-02    0.0000000    
  0.90152697       0.71061441E-02   0.41854049E-02   0.22947636E-03  -0.82441584E-02    0.0000000    
  0.91562470       0.71061441E-02   0.32643119E-02   0.22412895E-03  -0.83694793E-02    0.0000000    
  0.92812826       0.71061441E-02   0.24740688E-02   0.21379159E-03  -0.84400165E-02    0.0000000    
  0.93921793       0.71061441E-02   0.18128354E-02   0.19906041E-03  -0.84730983E-02    0.0000000    
  0.94905358       0.71061441E-02   0.12742825E-02   0.17996341E-03  -0.84809557E-02    0.0000000    
  0.95777702       0.71061441E-02   0.84975341E-03   0.15658597E-03  -0.84726221E-02    0.0000000    
  0.96551402       0.71061441E-02   0.52871050E-03   0.12940826E-03  -0.84550064E-02    0.0000000    
  0.97237612       0.71061441E-02   0.29878458E-03   0.99452423E-04  -0.84334398E-02    0.0000000    
  0.97846226       0.71061441E-02   0.14597341E-03   0.68350546E-04  -0.84119385E-02    0.0000000    
  0.98386018       0.71061441E-02   0.55042872E-04   0.38400908E-04  -0.83933389E-02    0.0000000    
  0.98864770       0.71061441E-02   0.99419712E-05   0.12593240E-04  -0.83794487E-02    0.0000000    
  0.99289386       0.71061441E-02  -0.53154271E-05  -0.53244062E-05  -0.83710082E-02    0.0000000    
  0.99665986       0.71061441E-02  -0.48745037E-05  -0.10796057E-04  -0.83673968E-02    0.0000000    
   1.0000000       0.71061441E-02    0.0000000        0.0000000      -0.83669106E-02    0.0000000    
   0.0000000       0.11352298E-01    0.0000000        0.0000000      -0.25632198E-04    0.0000000    
  0.33401432E-02   0.11352298E-01   0.47582685E-05  -0.77633717E-05  -0.21967215E-04    0.0000000    
  0.71061441E-02   0.11352298E-01   0.26688992E-04  -0.34295126E-04  -0.16709981E-04    0.0000000    
  0.11352298E-01   0.11352298E-01   0.74373912E-04  -0.72882163E-04  -0.10750296E-04    0.0000000    
  0.16139824E-01   0.11352298E-01   0.15757537E-03  -0.11674231E-03  -0.42498688E-05    0.0000000    
  0.21537744E-01   0.11352298E-01   0.28660755E-03  -0.16013717E-03   0.16495219E-05    0.0000000    
  0.27623881E-01   0.11352298E-01   0.47001658E-03  -0.19832178E-03   0.49481227E-05    0.0000000    
  0.34485982E-01   0.11352298E-01   0.71277691E-03  -0.22738593E-03   0.28250197E-05    0.0000000    
  0.42222980E-01   0.11352298E-01   0.10145121E-02  -0.24413872E-03  -0.83822336E-05    0.0000000    
  0.50946420E-01   0.11352298E-01   0.13675381E-02  -0.24611388E-03  -0.33146250E-04    0.0000000    
  0.60782071E-01   0.11352298E-01   0.17548792E-02  -0.23172455E-03  -0.76646346E-04    0.0000000    
  0.71871737E-01   0.11352298E-01   0.21486101E-02  -0.20055010E-03  -0.14458724E-03    0.0000000    
  0.84375300E-01   0.11352298E-01   0.25090571E-02  -0.15366078E-03  -0.24295107E-03    0.0000000    
  0.98473029E-01   0.11352298E-01   0.27855978E-02  -0.93787097E-04  -0.37779383E-03    0.0000000    
  0.11436817       0.11352298E-01   0.29186329E-02  -0.24976818E-04  -0.55552738E-03    0.0000000    
  0.13228990       0.11352298E-01   0.28427057E-02   0.48810074E-04  -0.78355873E-03    0.0000000    
  0.15249659       0.11352298E-01   0.24817613E-02   0.12605038E-03  -0.10735370E-02    0.0000000    
  0.17527956       0.11352298E-01   0.17392026E-02   0.21179103E-03  -0.14426589E-02    0.0000000    
  0.20096730       0.11352298E-01   0.44881239E-03   0.31751665E-03  -0.19232579E-02    0.0000000    
  0.22993014       0.11352298E-01  -0.16547646E-02   0.46344548E-03  -0.25522197E-02    0.0000000    
  0.26258565       0.11352298E-01  -0.50377453E-02   0.65861222E-03  -0.33891695E-02    0.0000000    
  0.29940464       0.11352298E-01  -0.10252391E-01   0.90812522E-03  -0.44437578E-02    0.0000000    
  0.34091793       0.11352298E-01  -0.17939003E-01   0.11523628E-02  -0.57033562E-02    0.0000000    
  0.38772404       0.11352298E-01  -0.27965394E-01   0.12894756E-02  -0.68388416E-02    0.0000000    
  0.44049778       0.11352298E-01  -0.38870658E-01   0.10842312E-02  -0.72939503E-02    0.0000000    
  0.50000000       0.11352298E-01  -0.45769881E-01   0.29175365E-03  -0.58732698E-02    0.0000000    
  0.55950222       0.11352298E-01  -0.42583399E-01  -0.82766133E-03  -0.27109898E-02    0.0000000    
  0.61227596       0.11352298E-01  -0.30626358E-01  -0.16693970E-02  -0.28615344E-03    0.0000000    
  0.65908207       0.11352298E-01  -0.15726615E-01  -0.19383230E-02   0.37408210E-03    0.0000000    
  0.70059536       0.11352298E-01  -0.25866569E-02  -0.16606951E-02  -0.57407730E-03    0.0000000    
  0.73741435       0.11352298E-01   0.63627298E-02  -0.11055408E-02  -0.22547621E-02    0.0000000    
  0.77006986       0.11352298E-01   0.11132730E-01  -0.52839418E-03  -0.39833211E-02    0.0000000    
  0.79903270       0.11352298E-01   0.12764578E-01  -0.68325886E-04  -0.54086349E-02    0.0000000    
  0.82472044       0.11352298E-01   0.12492955E-01   0.24313542E-03  -0.64636184E-02    0.0000000    
  0.84750341       0.11352298E-01   0.11251952E-01   0.42836827E-03  -0.71954799E-02    0.0000000    
  0.86771010       0.11352298E-01   0.96382101E-02   0.52521063E-03  -0.76857647E-02    0.0000000    
  0.88563183       0.11352298E-01   0.79747470E-02   0.56672119E-03  -0.80060333E-02    0.0000000    
  0.90152697       0.11352298E-01   0.64182443E-02   0.57553055E-03  -0.82103506E-02    0.0000000    
  0.91562470       0.11352298E-01   0.50332807E-02   0.56447245E-03  -0.83358868E-02    0.0000000    
  0.92812826       0.11352298E-01   0.38404268E-02   0.53950006E-03  -0.84077674E-02    0.0000000    
  0.93921793       0.11352298E-01   0.28403445E-02   0.50274805E-03  -0.84430918E-02    0.0000000    
  0.94905358       0.11352298E-01   0.20247551E-02   0.45491256E-03  -0.84539242E-02    0.0000000    
  0.95777702       0.11352298E-01   0.13804409E-02   0.39678302E-03  -0.84491122E-02    0.0000000    
  0.96551402       0.11352298E-01   0.89057767E-03   0.33004860E-03  -0.84353172E-02    0.0000000    
  0.97237612       0.11352298E-01   0.53538144E-03   0.25761752E-03  -0.84175542E-02    0.0000000    
  0.97846226       0.11352298E-01   0.29291007E-03   0.18366649E-03  -0.83994556E-02    0.0000000    
  0.98386018       0.11352298E-01   0.14009561E-03   0.11352926E-03  -0.83834625E-02    0.0000000    
  0.98864770       0.11352298E-01   0.53818084E-04   0.53406070E-04  -0.83710467E-02    0.0000000    
  0.99289386       0.11352298E-01   0.12815250E-04   0.10018488E-04  -0.83625907E-02    0.0000000    
  0.99665986       0.11352298E-01   0.78312667E-07  -0.96464771E-05  -0.83573169E-02    0.0000000    
   1.0000000       0.11352298E-01    0.0000000        0.0000000      -0.83555329E-02    0.0000000    
   0.0000000       0.16139824E-01    0.0000000        0.0000000      -0.37114237E-04    0.0000000    
  0.33401432E-02   0.16139824E-01   0.97237378E-05  -0.31934644E-04  -0.31615551E-04    0.0000000    
  0.71061441E-02   0.16139824E-01   0.45636614E-04  -0.86124659E-04  -0.24300245E-04    0.0000000    
  0.11352298E-01   0.16139824E-01   0.11764851E-03  -0.15621896E-03  -0.17372857E-04    0.0000000    
  0.16139824E-01   0.16139824E-01   0.23532154E-03  -0.23419536E-03  -0.10817381E-04    0.0000000    
  0.21537744E-01   0.16139824E-01   0.40989509E-03  -0.31170870E-03  -0.55296502E-05    0.0000000    
  0.27623881E-01   0.16139824E-01   0.65146408E-03  -0.38067106E-03  -0.32191454E-05    0.0000000    
  0.34485982E-01   0.16139824E-01   0.96634966E-03  -0.43367335E-03  -0.63781913E-05    0.0000000    
  0.42222980E-01   0.16139824E-01   0.13543953E-02  -0.46425789E-03  -0.18350488E-04    0.0000000    
  0.50946420E-01   0.16139824E-01   0.18060062E-02  -0.46719550E-03  -0.43332410E-04    0.0000000    
  0.60782071E-01   0.16139824E-01   0.22991592E-02  -0.43890331E-03  -0.86281962E-04    0.0000000    
  0.71871737E-01   0.16139824E-01   0.27968226E-02  -0.37804170E-03  -0.15274615E-03    0.0000000    
  0.84375300E-01   0.16139824E-01   0.32454349E-02  -0.28614974E-03  -0.24862561E-03    0.0000000    
  0.98473029E-01   0.16139824E-01   0.35752795E-02  -0.16795787E-03  -0.37999344E-03    0.0000000    
  0.11436817       0.16139824E-01   0.37024052E-02  -0.30728488E-04  -0.55333174E-03    0.0000000    
  0.13228990       0.16139824E-01   0.35314419E-02   0.11838861E-03  -0.77620353E-03    0.0000000    
  0.15249659       0.16139824E-01   0.29491997E-02   0.27701104E-03  -0.10601952E-02    0.0000000    
  0.17527956       0.16139824E-01   0.18091150E-02   0.45485756E-03  -0.14224523E-02    0.0000000    
  0.20096730       0.16139824E-01  -0.13026743E-03   0.67463269E-03  -0.18943881E-02    0.0000000    
  0.22993014       0.16139824E-01  -0.32488546E-02   0.97282605E-03  -0.25126710E-02    0.0000000    
  0.26258565       0.16139824E-01  -0.81823854E-02   0.13672539E-02  -0.33357023E-02    0.0000000    
  0.29940464       0.16139824E-01  -0.15668435E-01   0.18566355E-02  -0.43753682E-02    0.0000000    
  0.34091793       0.16139824E-01  -0.26484262E-01   0.23219370E-02  -0.56221078E-02    0.0000000    
  0.38772404       0.16139824E-01  -0.40292863E-01   0.25441135E-02  -0.67572114E-02    0.0000000    
  0.44049778       0.16139824E-01  -0.54881022E-01   0.20728572E-02  -0.72368133E-02    0.0000000    
  0.50000000       0.16139824E-01  -0.63636167E-01   0.50224776E-03  -0.58737966E-02    0.0000000    
  0.55950222       0.16139824E-01  -0.58779692E-01  -0.16519493E-02  -0.27805799E-02    0.0000000    
  0.61227596       0.16139824E-01  -0.42507934E-01  -0.32714370E-02  -0.39717621E-03    0.0000000    
  0.65908207       0.16139824E-01  -0.22554066E-01  -0.37901502E-02   0.25512623E-03    0.0000000    
  0.70059536       0.16139824E-01  -0.49349469E-02  -0.32764665E-02  -0.67753419E-03    0.0000000    
  0.73741435       0.16139824E-01   0.72399576E-02  -0.22213066E-02  -0.23297558E-02    0.0000000    
  0.77006986       0.16139824E-01   0.13940966E-01  -0.11078517E-02  -0.40281612E-02    0.0000000    
  0.79903270       0.16139824E-01   0.16460038E-01  -0.20420235E-03  -0.54270935E-02    0.0000000    
  0.82472044       0.16139824E-01   0.16376504E-01   0.41924236E-03  -0.64622002E-02    0.0000000    
  0.84750341       0.16139824E-01   0.14916985E-01   0.79901751E-03  -0.71804235E-02    0.0000000    
  0.86771010       0.16139824E-01   0.12886317E-01   0.10040960E-02  -0.76621838E-02    0.0000000    
  0.88563183       0.16139824E-01   0.10735232E-01   0.10972811E-02  -0.79776237E-02    0.0000000    
  0.90152697       0.16139824E-01   0.86920239E-02   0.11225366E-02  -0.81797135E-02    0.0000000    
  0.91562470       0.16139824E-01   0.68577386E-02   0.11055553E-02  -0.83048641E-02    0.0000000    
  0.92812826       0.16139824E-01   0.52695408E-02   0.10589403E-02  -0.83777247E-02    0.0000000    
  0.93921793       0.16139824E-01   0.39336664E-02   0.98797154E-03  -0.84150594E-02    0.0000000    
  0.94905358       0.16139824E-01   0.28412235E-02   0.89511889E-03  -0.84286415E-02    0.0000000    
  0.95777702       0.16139824E-01   0.19747319E-02   0.78293289E-03  -0.84270101E-02    0.0000000    
  0.96551402       0.16139824E-01   0.13109580E-02   0.65551047E-03  -0.84164784E-02    0.0000000    
  0.97237612       0.16139824E-01   0.82266638E-03   0.51896205E-03  -0.84016762E-02    0.0000000    
  0.97846226       0.16139824E-01   0.48037476E-03   0.38126544E-03  -0.83858458E-02    0.0000000    
  0.98386018       0.16139824E-01   0.25417012E-03   0.25171799E-03  -0.83711023E-02    0.0000000    
  0.98864770       0.16139824E-01   0.11538446E-03   0.14008579E-03  -0.83586982E-02    0.0000000    
  0.99289386       0.16139824E-01   0.39260025E-04   0.55752193E-04  -0.83487389E-02    0.0000000    
  0.99665986       0.16139824E-01   0.74142842E-05   0.71380793E-05  -0.83403179E-02    0.0000000    
   1.0000000       0.16139824E-01    0.0000000        0.0000000      -0.83361976E-02    0.0000000    
   0.0000000       0.21537744E-01    0.0000000        0.0000000      -0.48781666E-04    0.0000000    
  0.33401432E-02   0.21537744E-01   0.14795041E-04  -0.73902877E-04  -0.41507505E-04    0.0000000    
  0.71061441E-02   0.21537744E-01   0.64493097E-04  -0.17112229E-03  -0.31808228E-04    0.0000000    
  0.11352298E-01   0.21537744E-01   0.16089223E-03  -0.28573488E-03  -0.23374912E-04    0.0000000    
  0.16139824E-01   0.21537744E-01   0.31303042E-03  -0.40899094E-03  -0.16130837E-04    0.0000000    
  0.21537744E-01   0.21537744E-01   0.53204415E-03  -0.53041227E-03  -0.10819210E-04    0.0000000    
  0.27623881E-01   0.21537744E-01   0.82830634E-03  -0.63851980E-03  -0.89674936E-05    0.0000000    
  0.34485982E-01   0.21537744E-01   0.12083586E-02  -0.72170942E-03  -0.12799967E-04    0.0000000    
  0.42222980E-01   0.21537744E-01   0.16715290E-02  -0.76910772E-03  -0.25361066E-04    0.0000000    
  0.50946420E-01   0.21537744E-01   0.22059799E-02  -0.77140429E-03  -0.50549792E-04    0.0000000    
  0.60782071E-01   0.21537744E-01   0.27845821E-02  -0.72180728E-03  -0.93058105E-04    0.0000000    
  0.71871737E-01   0.21537744E-01   0.33611756E-02  -0.61717280E-03  -0.15821241E-03    0.0000000    
  0.84375300E-01   0.21537744E-01   0.38679985E-02  -0.45913302E-03  -0.25175716E-03    0.0000000    
  0.98473029E-01   0.21537744E-01   0.42151696E-02  -0.25465080E-03  -0.37968727E-03    0.0000000    
  0.11436817       0.21537744E-01   0.42919582E-02  -0.14920254E-04  -0.54845711E-03    0.0000000    
  0.13228990       0.21537744E-01   0.39684515E-02   0.24896639E-03  -0.76569257E-03    0.0000000    
  0.15249659       0.21537744E-01   0.30869949E-02   0.53395861E-03  -0.10428463E-02    0.0000000    
  0.17527956       0.21537744E-01   0.14399880E-02   0.85656678E-03  -0.13970678E-02    0.0000000    
  0.20096730       0.21537744E-01  -0.13020646E-02   0.12554627E-02  -0.18589194E-02    0.0000000    
  0.22993014       0.21537744E-01  -0.56483775E-02   0.17884657E-02  -0.24653413E-02    0.0000000    
  0.26258565       0.21537744E-01  -0.12407888E-01   0.24839535E-02  -0.32735701E-02    0.0000000    
  0.29940464       0.21537744E-01  -0.22490725E-01   0.33227099E-02  -0.42992016E-02    0.0000000    
  0.34091793       0.21537744E-01  -0.36740434E-01   0.40918485E-02  -0.55362792E-02    0.0000000    
  0.38772404       0.21537744E-01  -0.54494099E-01   0.43894984E-02  -0.66793259E-02    0.0000000    
  0.44049778       0.21537744E-01  -0.72634344E-01   0.34707772E-02  -0.71940699E-02    0.0000000    
  0.50000000       0.21537744E-01  -0.82846264E-01   0.74174708E-03  -0.58939245E-02    0.0000000    
  0.55950222       0.21537744E-01  -0.75974851E-01  -0.28977527E-02  -0.28661428E-02    0.0000000    
  0.61227596       0.21537744E-01  -0.55345841E-01  -0.56101879E-02  -0.51517203E-03    0.0000000    
  0.65908207       0.21537744E-01  -0.30461264E-01  -0.64756928E-02   0.13400037E-03    0.0000000    
  0.70059536       0.21537744E-01  -0.84333586E-02  -0.56394229E-02  -0.78442163E-03    0.0000000    
  0.73741435       0.21537744E-01   0.70464011E-02  -0.38900933E-02  -0.24124563E-02    0.0000000    
  0.77006986       0.21537744E-01   0.15871860E-01  -0.20196123E-02  -0.40839099E-02    0.0000000    
  0.79903270       0.21537744E-01   0.19509771E-01  -0.47609977E-03  -0.54574120E-02    0.0000000    
  0.82472044       0.21537744E-01   0.19825257E-01   0.60915906E-03  -0.64716527E-02    0.0000000    
  0.84750341       0.21537744E-01   0.18312392E-01   0.12860491E-02  -0.71743770E-02    0.0000000    
  0.86771010       0.21537744E-01   0.15982152E-01   0.16633135E-02  -0.76455980E-02    0.0000000    
  0.88563183       0.21537744E-01   0.13421948E-01   0.18440861E-02  -0.79544898E-02    0.0000000    
  0.90152697       0.21537744E-01   0.10942726E-01   0.19024294E-02  -0.81530597E-02    0.0000000    