# vtk DataFile Version 3.0
      Instananeous Variables Output
ASCII
DATASET UNSTRUCTURED_GRID
POINTS       2601 double
  0.000000000000000E+000  0.000000000000000E+000  0.000000000000000E+000
  3.340143200000000E-003  0.000000000000000E+000  0.000000000000000E+000
  7.106144100000000E-003  0.000000000000000E+000  0.000000000000000E+000
  1.135229800000000E-002  0.000000000000000E+000  0.000000000000000E+000
  1.613982400000000E-002  0.000000000000000E+000  0.000000000000000E+000
  2.153774400000000E-002  0.000000000000000E+000  0.000000000000000E+000
  2.762388100000000E-002  0.000000000000000E+000  0.000000000000000E+000
  3.448598200000000E-002  0.000000000000000E+000  0.000000000000000E+000
  4.222298000000000E-002  0.000000000000000E+000  0.000000000000000E+000
  5.094642000000000E-002  0.000000000000000E+000  0.000000000000000E+000
  6.078207100000000E-002  0.000000000000000E+000  0.000000000000000E+000
  7.187173700000000E-002  0.000000000000000E+000  0.000000000000000E+000
  8.437530000000000E-002  0.000000000000000E+000  0.000000000000000E+000
  9.847302900000000E-002  0.000000000000000E+000  0.000000000000000E+000
  0.114368170000000       0.000000000000000E+000  0.000000000000000E+000
  0.132289900000000       0.000000000000000E+000  0.000000000000000E+000
  0.152496590000000       0.000000000000000E+000  0.000000000000000E+000
  0.175279560000000       0.000000000000000E+000  0.000000000000000E+000
  0.200967300000000       0.000000000000000E+000  0.000000000000000E+000
  0.229930140000000       0.000000000000000E+000  0.000000000000000E+000
  0.262585650000000       0.000000000000000E+000  0.000000000000000E+000
  0.299404640000000       0.000000000000000E+000  0.000000000000000E+000
  0.340917930000000       0.000000000000000E+000  0.000000000000000E+000
  0.387724040000000       0.000000000000000E+000  0.000000000000000E+000
  0.440497780000000       0.000000000000000E+000  0.000000000000000E+000
  0.500000000000000       0.000000000000000E+000  0.000000000000000E+000
  0.559502220000000       0.000000000000000E+000  0.000000000000000E+000
  0.612275960000000       0.000000000000000E+000  0.000000000000000E+000
  0.659082070000000       0.000000000000000E+000  0.000000000000000E+000
  0.700595360000000       0.000000000000000E+000  0.000000000000000E+000
  0.737414350000000       0.000000000000000E+000  0.000000000000000E+000
  0.770069860000000       0.000000000000000E+000  0.000000000000000E+000
  0.799032700000000       0.000000000000000E+000  0.000000000000000E+000
  0.824720440000000       0.000000000000000E+000  0.000000000000000E+000
  0.847503410000000       0.000000000000000E+000  0.000000000000000E+000
  0.867710100000000       0.000000000000000E+000  0.000000000000000E+000
  0.885631830000000       0.000000000000000E+000  0.000000000000000E+000
  0.901526970000000       0.000000000000000E+000  0.000000000000000E+000
  0.915624700000000       0.000000000000000E+000  0.000000000000000E+000
  0.928128260000000       0.000000000000000E+000  0.000000000000000E+000
  0.939217930000000       0.000000000000000E+000  0.000000000000000E+000
  0.949053580000000       0.000000000000000E+000  0.000000000000000E+000
  0.957777020000000       0.000000000000000E+000  0.000000000000000E+000
  0.965514020000000       0.000000000000000E+000  0.000000000000000E+000
  0.972376120000000       0.000000000000000E+000  0.000000000000000E+000
  0.978462260000000       0.000000000000000E+000  0.000000000000000E+000
  0.983860180000000       0.000000000000000E+000  0.000000000000000E+000
  0.988647700000000       0.000000000000000E+000  0.000000000000000E+000
  0.992893860000000       0.000000000000000E+000  0.000000000000000E+000
  0.996659860000000       0.000000000000000E+000  0.000000000000000E+000
   1.00000000000000       0.000000000000000E+000  0.000000000000000E+000
  0.000000000000000E+000  3.340143200000000E-003  0.000000000000000E+000
  3.340143200000000E-003  3.340143200000000E-003  0.000000000000000E+000
  7.106144100000000E-003  3.340143200000000E-003  0.000000000000000E+000
  1.135229800000000E-002  3.340143200000000E-003  0.000000000000000E+000
  1.613982400000000E-002  3.340143200000000E-003  0.000000000000000E+000
  2.153774400000000E-002  3.340143200000000E-003  0.000000000000000E+000
  2.762388100000000E-002  3.340143200000000E-003  0.000000000000000E+000
  3.448598200000000E-002  3.340143200000000E-003  0.000000000000000E+000
  4.222298000000000E-002  3.340143200000000E-003  0.000000000000000E+000
  5.094642000000000E-002  3.340143200000000E-003  0.000000000000000E+000
  6.078207100000000E-002  3.340143200000000E-003  0.000000000000000E+000
  7.187173700000000E-002  3.340143200000000E-003  0.000000000000000E+000
  8.437530000000000E-002  3.340143200000000E-003  0.000000000000000E+000
  9.847302900000000E-002  3.340143200000000E-003  0.000000000000000E+000
  0.114368170000000       3.340143200000000E-003  0.000000000000000E+000
  0.132289900000000       3.340143200000000E-003  0.000000000000000E+000
  0.152496590000000       3.340143200000000E-003  0.000000000000000E+000
  0.175279560000000       3.340143200000000E-003  0.000000000000000E+000
  0.200967300000000       3.340143200000000E-003  0.000000000000000E+000
  0.229930140000000       3.340143200000000E-003  0.000000000000000E+000
  0.262585650000000       3.340143200000000E-003  0.000000000000000E+000
  0.299404640000000       3.340143200000000E-003  0.000000000000000E+000
  0.340917930000000       3.340143200000000E-003  0.000000000000000E+000
  0.387724040000000       3.340143200000000E-003  0.000000000000000E+000
  0.440497780000000       3.340143200000000E-003  0.000000000000000E+000
  0.500000000000000       3.340143200000000E-003  0.000000000000000E+000
  0.559502220000000       3.340143200000000E-003  0.000000000000000E+000
  0.612275960000000       3.340143200000000E-003  0.000000000000000E+000
  0.659082070000000       3.340143200000000E-003  0.000000000000000E+000
  0.700595360000000       3.340143200000000E-003  0.000000000000000E+000
  0.737414350000000       3.340143200000000E-003  0.000000000000000E+000
  0.770069860000000       3.340143200000000E-003  0.000000000000000E+000
  0.799032700000000       3.340143200000000E-003  0.000000000000000E+000
  0.824720440000000       3.340143200000000E-003  0.000000000000000E+000
  0.847503410000000       3.340143200000000E-003  0.000000000000000E+000
  0.867710100000000       3.340143200000000E-003  0.000000000000000E+000
  0.885631830000000       3.340143200000000E-003  0.000000000000000E+000
  0.901526970000000       3.340143200000000E-003  0.000000000000000E+000
  0.915624700000000       3.340143200000000E-003  0.000000000000000E+000
  0.928128260000000       3.340143200000000E-003  0.000000000000000E+000
  0.939217930000000       3.340143200000000E-003  0.000000000000000E+000
  0.949053580000000       3.340143200000000E-003  0.000000000000000E+000
  0.957777020000000       3.340143200000000E-003  0.000000000000000E+000
  0.965514020000000       3.340143200000000E-003  0.000000000000000E+000
  0.972376120000000       3.340143200000000E-003  0.000000000000000E+000
  0.978462260000000       3.340143200000000E-003  0.000000000000000E+000
  0.983860180000000       3.340143200000000E-003  0.000000000000000E+000
  0.988647700000000       3.340143200000000E-003  0.000000000000000E+000
  0.992893860000000       3.340143200000000E-003  0.000000000000000E+000
  0.996659860000000       3.340143200000000E-003  0.000000000000000E+000
   1.00000000000000       3.340143200000000E-003  0.000000000000000E+000
  0.000000000000000E+000  7.106144100000000E-003  0.000000000000000E+000
  3.340143200000000E-003  7.106144100000000E-003  0.000000000000000E+000
  7.106144100000000E-003  7.106144100000000E-003  0.000000000000000E+000
  1.135229800000000E-002  7.106144100000000E-003  0.000000000000000E+000
  1.613982400000000E-002  7.106144100000000E-003  0.000000000000000E+000
  2.153774400000000E-002  7.106144100000000E-003  0.000000000000000E+000
  2.762388100000000E-002  7.106144100000000E-003  0.000000000000000E+000
  3.448598200000000E-002  7.106144100000000E-003  0.000000000000000E+000
  4.222298000000000E-002  7.106144100000000E-003  0.000000000000000E+000
  5.094642000000000E-002  7.106144100000000E-003  0.000000000000000E+000
  6.078207100000000E-002  7.106144100000000E-003  0.000000000000000E+000
  7.187173700000000E-002  7.106144100000000E-003  0.000000000000000E+000
  8.437530000000000E-002  7.106144100000000E-003  0.000000000000000E+000
  9.847302900000000E-002  7.106144100000000E-003  0.000000000000000E+000
  0.114368170000000       7.106144100000000E-003  0.000000000000000E+000
  0.132289900000000       7.106144100000000E-003  0.000000000000000E+000
  0.152496590000000       7.106144100000000E-003  0.000000000000000E+000
  0.175279560000000       7.106144100000000E-003  0.000000000000000E+000
  0.200967300000000       7.106144100000000E-003  0.000000000000000E+000
  0.229930140000000       7.106144100000000E-003  0.000000000000000E+000
  0.262585650000000       7.106144100000000E-003  0.000000000000000E+000
  0.299404640000000       7.106144100000000E-003  0.000000000000000E+000
  0.340917930000000       7.106144100000000E-003  0.000000000000000E+000
  0.387724040000000       7.106144100000000E-003  0.000000000000000E+000
  0.440497780000000       7.106144100000000E-003  0.000000000000000E+000
  0.500000000000000       7.106144100000000E-003  0.000000000000000E+000
  0.559502220000000       7.106144100000000E-003  0.000000000000000E+000
  0.612275960000000       7.106144100000000E-003  0.000000000000000E+000
  0.659082070000000       7.106144100000000E-003  0.000000000000000E+000
  0.700595360000000       7.106144100000000E-003  0.000000000000000E+000
  0.737414350000000       7.106144100000000E-003  0.000000000000000E+000
  0.770069860000000       7.106144100000000E-003  0.000000000000000E+000
  0.799032700000000       7.106144100000000E-003  0.000000000000000E+000
[...]
POINT_DATA       2601
 VECTORS velocity float 
  0.000000000000000E+000  0.000000000000000E+000  0.000000000000000E+000
  0.000000000000000E+000  0.000000000000000E+000  0.000000000000000E+000
  0.000000000000000E+000  0.000000000000000E+000  0.000000000000000E+000
  0.000000000000000E+000  0.000000000000000E+000  0.000000000000000E+000
  0.000000000000000E+000  0.000000000000000E+000  0.000000000000000E+000
  0.000000000000000E+000  0.000000000000000E+000  0.000000000000000E+000
  0.000000000000000E+000  0.000000000000000E+000  0.000000000000000E+000
  0.000000000000000E+000  0.000000000000000E+000  0.000000000000000E+000
  0.000000000000000E+000  0.000000000000000E+000  0.000000000000000E+000
  0.000000000000000E+000  0.000000000000000E+000  0.000000000000000E+000
  0.000000000000000E+000  0.000000000000000E+000  0.000000000000000E+000
  0.000000000000000E+000  0.000000000000000E+000  0.000000000000000E+000
  0.000000000000000E+000  0.000000000000000E+000  0.000000000000000E+000
  0.000000000000000E+000  0.000000000000000E+000  0.000000000000000E+000
  0.000000000000000E+000  0.000000000000000E+000  0.000000000000000E+000
  0.000000000000000E+000  0.000000000000000E+000  0.000000000000000E+000
  0.000000000000000E+000  0.000000000000000E+000  0.000000000000000E+000
  0.000000000000000E+000  0.000000000000000E+000  0.000000000000000E+000
  0.000000000000000E+000  0.000000000000000E+000  0.000000000000000E+000
  0.000000000000000E+000  0.000000000000000E+000  0.000000000000000E+000
  0.000000000000000E+000  0.000000000000000E+000  0.000000000000000E+000
  0.000000000000000E+000  0.000000000000000E+000  0.000000000000000E+000
  0.000000000000000E+000  0.000000000000000E+000  0.000000000000000E+000
  0.000000000000000E+000  0.000000000000000E+000  0.000000000000000E+000
  0.000000000000000E+000  0.000000000000000E+000  0.000000000000000E+000
  0.000000000000000E+000  0.000000000000000E+000  0.000000000000000E+000
  0.000000000000000E+000  0.000000000000000E+000  0.000000000000000E+000
  0.000000000000000E+000  0.000000000000000E+000  0.000000000000000E+000
  0.000000000000000E+000  0.000000000000000E+000  0.000000000000000E+000
  0.000000000000000E+000  0.000000000000000E+000  0.000000000000000E+000
  0.000000000000000E+000  0.000000000000000E+000  0.000000000000000E+000
  0.000000000000000E+000  0.000000000000000E+000  0.000000000000000E+000
  0.000000000000000E+000  0.000000000000000E+000  0.000000000000000E+000
  0.000000000000000E+000  0.000000000000000E+000  0.000000000000000E+000
  0.000000000000000E+000  0.000000000000000E+000  0.000000000000000E+000
  0.000000000000000E+000  0.000000000000000E+000  0.000000000000000E+000
  0.000000000000000E+000  0.000000000000000E+000  0.000000000000000E+000
  0.000000000000000E+000  0.000000000000000E+000  0.000000000000000E+000
  0.000000000000000E+000  0.000000000000000E+000  0.000000000000000E+000
  0.000000000000000E+000  0.000000000000000E+000  0.000000000000000E+000
  0.000000000000000E+000  0.000000000000000E+000  0.000000000000000E+000
  0.000000000000000E+000  0.000000000000000E+000  0.000000000000000E+000
  0.000000000000000E+000  0.000000000000000E+000  0.000000000000000E+000
  0.000000000000000E+000  0.000000000000000E+000  0.000000000000000E+000
  0.000000000000000E+000  0.000000000000000E+000  0.000000000000000E+000
  0.000000000000000E+000  0.000000000000000E+000  0.000000000000000E+000
  0.000000000000000E+000  0.000000000000000E+000  0.000000000000000E+000
  0.000000000000000E+000  0.000000000000000E+000  0.000000000000000E+000
  0.000000000000000E+000  0.000000000000000E+000  0.000000000000000E+000
  0.000000000000000E+000  0.000000000000000E+000  0.000000000000000E+000
  0.000000000000000E+000  0.000000000000000E+000  0.000000000000000E+000
  0.000000000000000E+000  0.000000000000000E+000  0.000000000000000E+000
  1.927691206202785E-007  5.057996381088645E-006  0.000000000000000E+000
  6.073902591635475E-007  1.520890629042294E-006  0.000000000000000E+000
  9.505616621215276E-006 -3.952955653911222E-006  0.000000000000000E+000
  3.281593491427552E-005 -9.574496877953550E-006  0.000000000000000E+000
  7.445398160210468E-005 -1.478555650259829E-005  0.000000000000000E+000
  1.369616353285103E-004 -1.924110636216142E-005  0.000000000000000E+000
  2.214713388306923E-004 -2.263125396211471E-005  0.000000000000000E+000
  3.273007512572718E-004 -2.469365960796198E-005  0.000000000000000E+000
  4.513937530921069E-004 -2.522729727316726E-005  0.000000000000000E+000
  5.877652829736406E-004 -2.410885885934167E-005  0.000000000000000E+000
  7.270747984063324E-004 -2.132485427351077E-005  0.000000000000000E+000
  8.565257227504732E-004 -1.700821356609762E-005  0.000000000000000E+000
  9.604092119057844E-004 -1.146879590462458E-005  0.000000000000000E+000
  1.020990327774595E-003 -5.176830266183447E-006  0.000000000000000E+000
  1.020127276388036E-003  1.367333647039337E-006  0.000000000000000E+000
  9.375323601115876E-004  7.820026006785189E-006  0.000000000000000E+000
  7.486189543801752E-004  1.460420273338271E-005  0.000000000000000E+000
  4.063197657425755E-004  2.256150284274653E-005  0.000000000000000E+000
 -1.660949330149329E-004  3.440551574270963E-005  0.000000000000000E+000
 -1.115961482957314E-003  5.054164322368512E-005  0.000000000000000E+000
 -2.621793449500895E-003  7.459802282957184E-005  0.000000000000000E+000
 -4.920261584876196E-003  1.005722590088979E-004  0.000000000000000E+000
 -8.026405984822772E-003  1.251003669614219E-004  0.000000000000000E+000
 -1.156737278428637E-002  1.262417134234791E-004  0.000000000000000E+000
 -1.399042265687176E-002  5.507607429649682E-005  0.000000000000000E+000
 -1.318849087529181E-002 -6.905789834319688E-005  0.000000000000000E+000
 -9.412891304496086E-003 -1.622815443670103E-004  0.000000000000000E+000
 -4.573749255640143E-003 -1.953933694259429E-004  0.000000000000000E+000
 -3.089003229662519E-004 -1.650887323802702E-004  0.000000000000000E+000
  2.529499727469833E-003 -1.058748165204227E-004  0.000000000000000E+000
  3.961428309702832E-003 -4.592400265218608E-005  0.000000000000000E+000
  4.365491909904380E-003 -4.681333684013252E-007  0.000000000000000E+000
  4.172225774406465E-003  2.883475702325717E-005  0.000000000000000E+000
  3.694284801826316E-003  4.507146940968767E-005  0.000000000000000E+000
  3.122987025803204E-003  5.278221475244713E-005  0.000000000000000E+000
  2.555961541583006E-003  5.546945092546208E-005  0.000000000000000E+000
  2.036792412969321E-003  5.545077455504967E-005  0.000000000000000E+000
  1.580680275406601E-003  5.392812207573408E-005  0.000000000000000E+000
  1.190488310658736E-003  5.137702249380878E-005  0.000000000000000E+000
  8.643237420715712E-004  4.786722576126029E-005  0.000000000000000E+000
  5.987076912731219E-004  4.331867327310606E-005  0.000000000000000E+000
  3.894458236167093E-004  3.766777650454655E-005  0.000000000000000E+000
  2.316759943757580E-004  3.095561520593843E-005  0.000000000000000E+000
  1.197417528013646E-004  2.336803150963388E-005  0.000000000000000E+000
  4.715645437782583E-005  1.526060955614795E-005  0.000000000000000E+000
  6.673200518336892E-006  7.198267862893886E-006  0.000000000000000E+000
 -9.719535392609146E-006  3.685234494808773E-008  0.000000000000000E+000
 -1.079897118975475E-005 -4.867242141206573E-006  0.000000000000000E+000
 -5.436247668161263E-006 -5.432711751781083E-006  0.000000000000000E+000
  0.000000000000000E+000  0.000000000000000E+000  0.000000000000000E+000
  0.000000000000000E+000  0.000000000000000E+000  0.000000000000000E+000
  1.150240995405254E-006  2.996782956092647E-006  0.000000000000000E+000
  1.055789252366205E-005 -7.796564901682077E-006  0.000000000000000E+000
  3.633189754779661E-005 -2.542554992967618E-005  0.000000000000000E+000
  8.750953829231555E-005 -4.518097727476462E-005  0.000000000000000E+000
  1.719750251258710E-004 -6.424845282566859E-005  0.000000000000000E+000
  2.955255433961389E-004 -8.070872718845535E-005  0.000000000000000E+000
  4.611598963688063E-004 -9.308161114922191E-005  0.000000000000000E+000
  6.681512927087774E-004 -1.001914541313435E-004  0.000000000000000E+000
  9.108990418013882E-004 -1.011545025176297E-004  0.000000000000000E+000
  1.177738071587433E-003 -9.543429492936510E-005  0.000000000000000E+000
  1.449978950296611E-003 -8.295629240345274E-005  0.000000000000000E+000
  1.701560482947308E-003 -6.424851200909425E-005  0.000000000000000E+000
  1.899879981211465E-003 -4.051822918015103E-005  0.000000000000000E+000
  2.007374842474728E-003 -1.352160569862112E-005  0.000000000000000E+000
  1.984211069755821E-003  1.501287514932051E-005  0.000000000000000E+000
  1.785017977797255E-003  4.429103114910381E-005  0.000000000000000E+000
  1.353424772074469E-003  7.635927941639010E-005  0.000000000000000E+000
  5.874533970166328E-004  1.156151846256567E-004  0.000000000000000E+000
 -6.776119467366219E-004  1.711038090772197E-004  0.000000000000000E+000
 -2.744736331000330E-003  2.459380207104790E-004  0.000000000000000E+000
 -5.977773244996425E-003  3.457247557049089E-004  0.000000000000000E+000
 -1.083115619962877E-002  4.461872784148000E-004  0.000000000000000E+000
 -1.728230507979096E-002  5.133397542030224E-004  0.000000000000000E+000
 -2.447819248122294E-002  4.523082724259338E-004  0.000000000000000E+000
 -2.923169462363509E-002  1.383588717041988E-004  0.000000000000000E+000
 -2.738389503106276E-002 -3.258969137549984E-004  0.000000000000000E+000
 -1.961129775557944E-002 -6.706630378984177E-004  0.000000000000000E+000
 -9.780697852521562E-003 -7.797207351302557E-004  0.000000000000000E+000
 -1.115605271646805E-003 -6.593316831444754E-004  0.000000000000000E+000
  4.713176490838886E-003 -4.288184244234238E-004  0.000000000000000E+000
  7.731081783568367E-003 -1.941293583420959E-004  0.000000000000000E+000
  8.669202031494514E-003 -1.156816132733445E-005  0.000000000000000E+000
  8.374227686162257E-003  1.091684751875697E-004  0.000000000000000E+000
  7.472650866026273E-003  1.788421859233516E-004  0.000000000000000E+000
  6.355466523100467E-003  2.138364906975656E-004  0.000000000000000E+000
  5.227905920297315E-003  2.276940425064915E-004  0.000000000000000E+000
  4.185404888622284E-003  2.294763637103279E-004  0.000000000000000E+000
  3.264311880811690E-003  2.241289548643343E-004  0.000000000000000E+000
  2.474068847357706E-003  2.137915858448126E-004  0.000000000000000E+000
  1.812835422554663E-003  1.990604072994592E-004  0.000000000000000E+000
  1.274282483228794E-003  1.799634097384356E-004  0.000000000000000E+000
  8.497534069124699E-004  1.565859740558533E-004  0.000000000000000E+000
  5.287105023121542E-004  1.294082637520396E-004  0.000000000000000E+000
  2.987845776975551E-004  9.945242301525632E-005  0.000000000000000E+000
  1.459734073775741E-004  6.835054571032572E-005  0.000000000000000E+000
  5.504287220637358E-005  3.840090803301051E-005  0.000000000000000E+000
  9.941971198406187E-006  1.259323966972827E-005  0.000000000000000E+000
 -5.315427076883493E-006 -5.324406170489577E-006  0.000000000000000E+000
 -4.874503713281892E-006 -1.079605686336633E-005  0.000000000000000E+000
  0.000000000000000E+000  0.000000000000000E+000  0.000000000000000E+000
  0.000000000000000E+000  0.000000000000000E+000  0.000000000000000E+000
  4.758268455796190E-006 -7.763371681503900E-006  0.000000000000000E+000
  2.668899244396136E-005 -3.429512558206324E-005  0.000000000000000E+000
  7.437391180749671E-005 -7.288216285748908E-005  0.000000000000000E+000
  1.575753659775951E-004 -1.167423066608038E-004  0.000000000000000E+000
  2.866075494445605E-004 -1.601371654849017E-004  0.000000000000000E+000
  4.700165832389878E-004 -1.983217803877678E-004  0.000000000000000E+000
  7.127769133814858E-004 -2.273859267269599E-004  0.000000000000000E+000
  1.014512104421604E-003 -2.441387150625391E-004  0.000000000000000E+000
  1.367538050379059E-003 -2.461138805626670E-004  0.000000000000000E+000
  1.754879182718966E-003 -2.317245474954703E-004  0.000000000000000E+000
  2.148610131700222E-003 -2.005500984084312E-004  0.000000000000000E+000
  2.509057138857601E-003 -1.536607819318976E-004  0.000000000000000E+000
  2.785597786875923E-003 -9.378709743503574E-005  0.000000000000000E+000
  2.918632934324363E-003 -2.497681790871202E-005  0.000000000000000E+000
  2.842705723689039E-003  4.881007427653667E-005  0.000000000000000E+000
  2.481761283565802E-003  1.260503810626511E-004  0.000000000000000E+000
  1.739202555718168E-003  2.117910316075640E-004  0.000000000000000E+000
  4.488123865191082E-004  3.175166534239893E-004  0.000000000000000E+000
 -1.654764618107856E-003  4.634454761829955E-004  0.000000000000000E+000
 -5.037745303254163E-003  6.586122225747227E-004  0.000000000000000E+000
 -1.025239137052608E-002  9.081252187462582E-004  0.000000000000000E+000
 -1.793900264917851E-002  1.152362805760506E-003  0.000000000000000E+000
 -2.796539407164847E-002  1.289475640654944E-003  0.000000000000000E+000
 -3.887065844173643E-002  1.084231216252578E-003  0.000000000000000E+000
 -4.576988057208613E-002  2.917536544437724E-004  0.000000000000000E+000
 -4.258339861696767E-002 -8.276613283920457E-004  0.000000000000000E+000
 -3.062635843697747E-002 -1.669396973329289E-003  0.000000000000000E+000
 -1.572661524446086E-002 -1.938322962986441E-003  0.000000000000000E+000
 -2.586656869281726E-003 -1.660695094896046E-003  0.000000000000000E+000
  6.362729839243077E-003 -1.105540836522141E-003  0.000000000000000E+000
  1.113272962118496E-002 -5.283941776464915E-004  0.000000000000000E+000
  1.276457832934796E-002 -6.832588556103026E-005  0.000000000000000E+000
  1.249295500386618E-002  2.431354232937700E-004  0.000000000000000E+000
  1.125195237891349E-002  4.283682704546436E-004  0.000000000000000E+000
  9.638210104906711E-003  5.252106298030342E-004  0.000000000000000E+000
  7.974746976740561E-003  5.667211883600249E-004  0.000000000000000E+000
  6.418244301768641E-003  5.755305496962628E-004  0.000000000000000E+000
  5.033280673958624E-003  5.644724527796088E-004  0.000000000000000E+000
  3.840426838840845E-003  5.395000648835160E-004  0.000000000000000E+000
  2.840344486375023E-003  5.027480500659325E-004  0.000000000000000E+000
  2.024755105117577E-003  4.549125575501867E-004  0.000000000000000E+000
  1.380440905452922E-003  3.967830223112154E-004  0.000000000000000E+000
  8.905776670451903E-004  3.300486031132294E-004  0.000000000000000E+000
  5.353814352367094E-004  2.576175211841134E-004  0.000000000000000E+000
  2.929100709417133E-004  1.836664859495293E-004  0.000000000000000E+000
  1.400956071546680E-004  1.135292609353299E-004  0.000000000000000E+000
  5.381808404553039E-005  5.340607023239939E-005  0.000000000000000E+000
  1.281524994200899E-005  1.001848782821712E-005  0.000000000000000E+000
  7.831266709825546E-008 -9.646477076157305E-006  0.000000000000000E+000
  0.000000000000000E+000  0.000000000000000E+000  0.000000000000000E+000
  0.000000000000000E+000  0.000000000000000E+000  0.000000000000000E+000
  9.723737758741209E-006 -3.193464391692248E-005  0.000000000000000E+000
  4.563661435915228E-005 -8.612465930502537E-005  0.000000000000000E+000
  1.176485070526019E-004 -1.562189587264431E-004  0.000000000000000E+000
  2.353215363983111E-004 -2.341953560948825E-004  0.000000000000000E+000
  4.098950864829419E-004 -3.117086958067890E-004  0.000000000000000E+000
  6.514640796054065E-004 -3.806710581069546E-004  0.000000000000000E+000
  9.663496594148627E-004 -4.336733533461182E-004  0.000000000000000E+000
  1.354395340175640E-003 -4.642578940004288E-004  0.000000000000000E+000
  1.806006183369050E-003 -4.671954994225676E-004  0.000000000000000E+000
  2.299159170050534E-003 -4.389033111828772E-004  0.000000000000000E+000
  2.796822553829851E-003 -3.780416979145330E-004  0.000000000000000E+000
  3.245434904475841E-003 -2.861497408923397E-004  0.000000000000000E+000
  3.575279518097534E-003 -1.679578655114785E-004  0.000000000000000E+000
  3.702405178174645E-003 -3.072848819755722E-005  0.000000000000000E+000
  3.531441910138136E-003  1.183886145888407E-004  0.000000000000000E+000
  2.949199718699625E-003  2.770110375147399E-004  0.000000000000000E+000
  1.809115042183986E-003  4.548575555869395E-004  0.000000000000000E+000
 -1.302674337562428E-004  6.746326929841912E-004  0.000000000000000E+000
 -3.248854563685649E-003  9.728260545334856E-004  0.000000000000000E+000
 -8.182385354933982E-003  1.367253894423312E-003  0.000000000000000E+000
 -1.566843478384885E-002  1.856635467884097E-003  0.000000000000000E+000
 -2.648426161249383E-002  2.321937004307039E-003  0.000000000000000E+000
 -4.029286328603091E-002  2.544113516400511E-003  0.000000000000000E+000
 -5.488102172845417E-002  2.072857171651228E-003  0.000000000000000E+000
 -6.363616749552961E-002  5.022477623765854E-004  0.000000000000000E+000
 -5.877969205825268E-002 -1.651949332994814E-003  0.000000000000000E+000
 -4.250793425734145E-002 -3.271436960970855E-003  0.000000000000000E+000
 -2.255406615904310E-002 -3.790150155279895E-003  0.000000000000000E+000
 -4.934946852035108E-003 -3.276466546649145E-003  0.000000000000000E+000
  7.239957556306018E-003 -2.221306618428317E-003  0.000000000000000E+000
  1.394096592276704E-002 -1.107851737057376E-003  0.000000000000000E+000
  1.646003790517092E-002 -2.042023462090034E-004  0.000000000000000E+000
  1.637650356226848E-002  4.192423632070869E-004  0.000000000000000E+000
  1.491698532550761E-002  7.990175079794159E-004  0.000000000000000E+000
  1.288631719758206E-002  1.004095952444746E-003  0.000000000000000E+000
  1.073523234964510E-002  1.097281149678935E-003  0.000000000000000E+000
  8.692023899874293E-003  1.122536616637792E-003  0.000000000000000E+000
  6.857738556330161E-003  1.105555301182351E-003  0.000000000000000E+000
  5.269540769173021E-003  1.058940273205346E-003  0.000000000000000E+000
  3.933666418099194E-003  9.879715378872255E-004  0.000000000000000E+000
  2.841223541160687E-003  8.951188863440477E-004  0.000000000000000E+000
  1.974731946161422E-003  7.829328948017680E-004  0.000000000000000E+000
  1.310957999457265E-003  6.555104692275165E-004  0.000000000000000E+000
  8.226663756445353E-004  5.189620473032953E-004  0.000000000000000E+000
  4.803747631496254E-004  3.812654378560848E-004  0.000000000000000E+000
  2.541701209581944E-004  2.517179916307607E-004  0.000000000000000E+000
  1.153844645391675E-004  1.400857927535152E-004  0.000000000000000E+000
  3.926002534876605E-005  5.575219332583366E-005  0.000000000000000E+000
  7.414284248629606E-006  7.138079265295540E-006  0.000000000000000E+000
  0.000000000000000E+000  0.000000000000000E+000  0.000000000000000E+000
  0.000000000000000E+000  0.000000000000000E+000  0.000000000000000E+000
  1.479504093343157E-005 -7.390287704284563E-005  0.000000000000000E+000
  6.449309692652703E-005 -1.711222883545964E-004  0.000000000000000E+000
  1.608922284613512E-004 -2.857348801872144E-004  0.000000000000000E+000
  3.130304181137842E-004 -4.089909382733066E-004  0.000000000000000E+000
  5.320441503931782E-004 -5.304122658667662E-004  0.000000000000000E+000
  8.283063386376710E-004 -6.385198018910811E-004  0.000000000000000E+000
  1.208358590914234E-003 -7.217094218705933E-004  0.000000000000000E+000
  1.671529041650511E-003 -7.691077192121869E-004  0.000000000000000E+000
  2.205979904807768E-003 -7.714042860452431E-004  0.000000000000000E+000
  2.784582061008450E-003 -7.218072806339061E-004  0.000000000000000E+000
  3.361175622969914E-003 -6.171727954277727E-004  0.000000000000000E+000
  3.867998471269259E-003 -4.591330200530464E-004  0.000000000000000E+000
  4.215169598055441E-003 -2.546508020130522E-004  0.000000000000000E+000
  4.291958206471949E-003 -1.492025395120177E-005  0.000000000000000E+000
  3.968451458252963E-003  2.489663888909320E-004  0.000000000000000E+000
  3.086994890942941E-003  5.339586094739463E-004  0.000000000000000E+000
  1.439988026419983E-003  8.565667816014577E-004  0.000000000000000E+000